LAMMPS (7 Feb 2024 - Update 1)
OMP_NUM_THREADS environment is not set. Defaulting to 1 thread. (src/comm.cpp:98)
  using 1 OpenMP thread(s) per MPI task
Lattice spacing in x,y,z = 5.431 5.431 5.431
Created orthogonal box = (0 0 0) to (32.586 32.586 325.86)
  1 by 1 by 1 MPI processor grid
Created 17280 atoms
  using lattice units in orthogonal box = (0 0 0) to (32.586 32.586 325.86)
  create_atoms CPU = 0.008 seconds
Reading tersoff potential file Si.tersoff with DATE: 2007-10-25
Neighbor list info ...
  update: every = 1 steps, delay = 0 steps, check = yes
  max neighbors/atom: 2000, page size: 100000
  master list distance cutoff = 5.2
  ghost atom cutoff = 5.2
  binsize = 2.6, bins = 13 13 126
  1 neighbor lists, perpetual/occasional/extra = 1 0 0
  (1) pair tersoff, perpetual
      attributes: full, newton on
      pair build: full/bin/atomonly
      stencil: full/bin/3d
      bin: standard
Setting up cg style minimization ...
  Unit style    : metal
  Current step  : 0
Per MPI rank memory allocation (min/avg/max) = 10.32 | 10.32 | 10.32 Mbytes
   Step          Temp          E_pair         E_mol          TotEng         Press     
         0   0             -80013.52       0             -80013.52       124.6582     
         1   0             -80013.52       0             -80013.52       124.6582     
Loop time of 0.110259 on 1 procs for 1 steps with 17280 atoms

91.1% CPU use with 1 MPI tasks x 1 OpenMP threads

Minimization stats:
  Stopping criterion = energy tolerance
  Energy initial, next-to-last, final = 
     -80013.5204694715  -80013.5204694715  -80013.5204694715
  Force two-norm initial, final = 2.36373e-11 2.358303e-11
  Force max component initial, final = 4.6386506e-13 4.6718185e-13
  Final line search alpha, max atom move = 1 4.6718185e-13
  Iterations, force evaluations = 1 2

MPI task timing breakdown:
Section |  min time  |  avg time  |  max time  |%varavg| %total
---------------------------------------------------------------
Pair    | 0.10864    | 0.10864    | 0.10864    |   0.0 | 98.53
Neigh   | 0          | 0          | 0          |   0.0 |  0.00
Comm    | 0.0004469  | 0.0004469  | 0.0004469  |   0.0 |  0.41
Output  | 0          | 0          | 0          |   0.0 |  0.00
Modify  | 0          | 0          | 0          |   0.0 |  0.00
Other   |            | 0.001169   |            |       |  1.06

Nlocal:          17280 ave       17280 max       17280 min
Histogram: 1 0 0 0 0 0 0 0 0 0
Nghost:          12429 ave       12429 max       12429 min
Histogram: 1 0 0 0 0 0 0 0 0 0
Neighs:              0 ave           0 max           0 min
Histogram: 1 0 0 0 0 0 0 0 0 0
FullNghs:       483840 ave      483840 max      483840 min
Histogram: 1 0 0 0 0 0 0 0 0 0

Total # of neighbors = 483840
Ave neighs/atom = 28
Neighbor list builds = 0
Dangerous builds = 0
Setting up Verlet run ...
  Unit style    : metal
  Current step  : 0
  Time step     : 0.001
Per MPI rank memory allocation (min/avg/max) = 8.073 | 8.073 | 8.073 Mbytes
   Step          Temp          PotEng         Press          Volume           Lz          Density    
         0   300           -80013.52       2193.0387      346013.59      325.86         2.3290245    
      1000   288.93062     -79294.423      106.0363       345194         325.60251      2.3345543    
      2000   298.73755     -79321.189      695.82747      345152         325.58931      2.3348384    
      3000   297.49201     -79311.916      6.7352154      345409.68      325.67031      2.3330966    
      4000   297.5622      -79324.904     -182.78969      345562.35      325.71828      2.3320659    
      5000   300.33391     -79314.062      196.33292      345311.82      325.63955      2.3337578    
      6000   298.7863      -79324.141      929.86871      345055.22      325.55887      2.3354933    
      7000   299.31817     -79315.189      382.27505      345186.79      325.60024      2.3346031    
      8000   301.87965     -79335.001     -81.392249      345436.48      325.67873      2.3329156    
      9000   303.18313     -79319.489     -270.44823      345467.84      325.68859      2.3327039    
     10000   297.54174     -79321.433      380.08349      345221.49      325.61116      2.3343684    
     11000   302.73032     -79319.004      275.05858      345273.38      325.62747      2.3340176    
     12000   295.96044     -79320.63      -632.63742      345549.65      325.71429      2.3321515    
     13000   298.35034     -79315.676      79.407571      345309.49      325.63882      2.3337736    
     14000   299.49935     -79320.911      196.14649      345229.22      325.61359      2.3343161    
     15000   301.48645     -79324.856      439.13671      345205.52      325.60613      2.3344764    
     16000   302.54537     -79322.842      74.859042      345412.13      325.67108      2.3330801    
     17000   296.40811     -79318.399      10.844709      345280.18      325.6296       2.3339717    
     18000   302.03069     -79321.326      113.41161      345311.8       325.63955      2.3337579    
     19000   300.03914     -79327.097     -221.36779      345433.21      325.67771      2.3329377    
     20000   296.75254     -79320.117     -363.32589      345427.68      325.67597      2.3329751    
     21000   303.00441     -79317.567      403.20264      345151.35      325.5891       2.3348428    
     22000   300.83702     -79327.071     -258.51443      345413.65      325.67156      2.3330698    
     23000   302.44673     -79314.943      315.03124      345208.91      325.6072       2.3344535    
     24000   299.79885     -79324.26       81.497051      345301.97      325.63646      2.3338243    
     25000   300.69759     -79322.922     -796.679        345528.69      325.70771      2.332293     
     26000   300.79847     -79321.441     -156.12275      345340.53      325.64858      2.3335638    
     27000   298.45035     -79323.077      108.52866      345223.26      325.61171      2.3343564    
     28000   299.41948     -79313.959      52.261914      345312.72      325.63983      2.3337517    
     29000   300.67261     -79321.362     -151.98964      345341.31      325.64882      2.3335585    
     30000   296.49536     -79324.432      699.03644      345019.17      325.54753      2.3357373    
Loop time of 1185.85 on 1 procs for 30000 steps with 17280 atoms

Performance: 2.186 ns/day, 10.980 hours/ns, 25.298 timesteps/s, 437.156 katom-step/s
91.9% CPU use with 1 MPI tasks x 1 OpenMP threads

MPI task timing breakdown:
Section |  min time  |  avg time  |  max time  |%varavg| %total
---------------------------------------------------------------
Pair    | 1161.5     | 1161.5     | 1161.5     |   0.0 | 97.95
Neigh   | 2.825      | 2.825      | 2.825      |   0.0 |  0.24
Comm    | 2.5706     | 2.5706     | 2.5706     |   0.0 |  0.22
Output  | 0.004288   | 0.004288   | 0.004288   |   0.0 |  0.00
Modify  | 16.409     | 16.409     | 16.409     |   0.0 |  1.38
Other   |            | 2.535      |            |       |  0.21

Nlocal:          17280 ave       17280 max       17280 min
Histogram: 1 0 0 0 0 0 0 0 0 0
Nghost:          12815 ave       12815 max       12815 min
Histogram: 1 0 0 0 0 0 0 0 0 0
Neighs:              0 ave           0 max           0 min
Histogram: 1 0 0 0 0 0 0 0 0 0
FullNghs:       490126 ave      490126 max      490126 min
Histogram: 1 0 0 0 0 0 0 0 0 0

Total # of neighbors = 490126
Ave neighs/atom = 28.363773
Neighbor list builds = 117
Dangerous builds = 0
Setting up Verlet run ...
  Unit style    : metal
  Current step  : 30000
  Time step     : 0.001
Per MPI rank memory allocation (min/avg/max) = 8.462 | 8.462 | 8.462 Mbytes
   Step          Temp          PotEng         Press          Volume           Lz          Density    
     30000   296.49536     -79324.432      699.03644      345019.17      325.54753      2.3357373    
     31000   303.48386     -79325.906      721.43369      345019.17      325.54753      2.3357373    
     32000   297.95314     -79324.839      726.33413      345019.17      325.54753      2.3357373    
     33000   298.73879     -79321.902      836.96116      345019.17      325.54753      2.3357373    
     34000   302.52131     -79317.095      701.09604      345019.17      325.54753      2.3357373    
     35000   298.4775      -79317.861      865.69525      345019.17      325.54753      2.3357373    
     36000   299.29637     -79316.922      835.4577       345019.17      325.54753      2.3357373    
     37000   301.51748     -79326.397      633.85198      345019.17      325.54753      2.3357373    
     38000   300.09676     -79325.769      648.41561      345019.17      325.54753      2.3357373    
     39000   299.40998     -79323.787      626.75807      345019.17      325.54753      2.3357373    
     40000   299.07394     -79322.727      684.71944      345019.17      325.54753      2.3357373    
     41000   302.54568     -79320.729      641.61038      345019.17      325.54753      2.3357373    
     42000   298.23019     -79320.01       555.32493      345019.17      325.54753      2.3357373    
     43000   299.83102     -79327.369      496.52068      345019.17      325.54753      2.3357373    
     44000   298.9121      -79320.513      586.16209      345019.17      325.54753      2.3357373    
     45000   299.10736     -79316.999      347.25195      345019.17      325.54753      2.3357373    
     46000   299.09051     -79325.106      463.46179      345019.17      325.54753      2.3357373    
     47000   300.99854     -79324.327      636.97828      345019.17      325.54753      2.3357373    
     48000   295.77335     -79323.509      552.29427      345019.17      325.54753      2.3357373    
     49000   298.59894     -79318.006      575.38617      345019.17      325.54753      2.3357373    
     50000   300.87754     -79320.396      594.58171      345019.17      325.54753      2.3357373    
Loop time of 782.216 on 1 procs for 20000 steps with 17280 atoms

Performance: 2.209 ns/day, 10.864 hours/ns, 25.568 timesteps/s, 441.822 katom-step/s
92.0% CPU use with 1 MPI tasks x 1 OpenMP threads

MPI task timing breakdown:
Section |  min time  |  avg time  |  max time  |%varavg| %total
---------------------------------------------------------------
Pair    | 770.47     | 770.47     | 770.47     |   0.0 | 98.50
Neigh   | 1.2101     | 1.2101     | 1.2101     |   0.0 |  0.15
Comm    | 2.885      | 2.885      | 2.885      |   0.0 |  0.37
Output  | 0.0030461  | 0.0030461  | 0.0030461  |   0.0 |  0.00
Modify  | 5.9347     | 5.9347     | 5.9347     |   0.0 |  0.76
Other   |            | 1.712      |            |       |  0.22

Nlocal:          17280 ave       17280 max       17280 min
Histogram: 1 0 0 0 0 0 0 0 0 0
Nghost:          12690 ave       12690 max       12690 min
Histogram: 1 0 0 0 0 0 0 0 0 0
Neighs:              0 ave           0 max           0 min
Histogram: 1 0 0 0 0 0 0 0 0 0
FullNghs:       490462 ave      490462 max      490462 min
Histogram: 1 0 0 0 0 0 0 0 0 0

Total # of neighbors = 490462
Ave neighs/atom = 28.383218
Neighbor list builds = 50
Dangerous builds = 0
BOX lx=32.554753234558802433 ly=32.554753234558802433 lz=325.54753234560268993
WARNING: Fix thermal/conductivity comes before fix ave/chunk (src/fix_thermal_conductivity.cpp:118)
Setting up Verlet run ...
  Unit style    : metal
  Current step  : 0
  Time step     : 0.001
Per MPI rank memory allocation (min/avg/max) = 8.962 | 8.962 | 8.962 Mbytes
   Step          Temp          PotEng         KinEng         TotEng         Press        f_thermal   
         0   300.87754     -79320.396      672.0058      -78648.39       594.58171      0            
     10000   299.25148     -79316.76       668.374       -78648.386      467.81839      11.84684     
     20000   299.37045     -79317.027      668.63973     -78648.387      482.05751      23.665198    
     30000   303.59749     -79326.481      678.08076     -78648.4        463.77763      35.275708    
     40000   301.89208     -79322.662      674.27175     -78648.39       492.52954      46.410608    
     50000   301.04043     -79320.759      672.36961     -78648.389      600.46988      58.084593    
     60000   299.37391     -79317.032      668.64746     -78648.384      727.82512      69.620462    
     70000   300.86036     -79320.362      671.96741     -78648.395      630.2344       81.012978    
     80000   300.87542     -79320.391      672.00106     -78648.39       748.31774      92.5868      
     90000   301.98362     -79322.865      674.47621     -78648.389      589.751        103.64611    
    100000   299.91345     -79318.235      669.8525      -78648.383      515.81778      115.13303    
    110000   300.17981     -79318.836      670.44741     -78648.388      492.74498      126.42172    
    120000   299.94811     -79318.322      669.92991     -78648.392      484.01064      137.90697    
    130000   301.69282     -79322.22       673.8267      -78648.393      636.83865      149.06279    
    140000   301.25198     -79321.232      672.8421      -78648.39       525.92022      160.12587    
    150000   299.92095     -79318.259      669.86925     -78648.39       508.4405       171.72579    
    160000   300.51562     -79319.581      671.19745     -78648.384      792.09289      183.20477    
    170000   300.1328      -79318.728      670.34242     -78648.386      673.94199      194.31229    
    180000   300.21537     -79318.915      670.52683     -78648.389      657.4733       205.82059    
    190000   303.50349     -79326.265      677.8708      -78648.394      605.41833      217.1466     
    200000   300.43582     -79319.405      671.01922     -78648.386      693.66558      228.58391    
Loop time of 7858.14 on 1 procs for 200000 steps with 17280 atoms

Performance: 2.199 ns/day, 10.914 hours/ns, 25.451 timesteps/s, 439.798 katom-step/s
92.0% CPU use with 1 MPI tasks x 1 OpenMP threads

MPI task timing breakdown:
Section |  min time  |  avg time  |  max time  |%varavg| %total
---------------------------------------------------------------
Pair    | 7761.3     | 7761.3     | 7761.3     |   0.0 | 98.77
Neigh   | 12.477     | 12.477     | 12.477     |   0.0 |  0.16
Comm    | 28.947     | 28.947     | 28.947     |   0.0 |  0.37
Output  | 0.0015118  | 0.0015118  | 0.0015118  |   0.0 |  0.00
Modify  | 37.905     | 37.905     | 37.905     |   0.0 |  0.48
Other   |            | 17.56      |            |       |  0.22

Nlocal:          17280 ave       17280 max       17280 min
Histogram: 1 0 0 0 0 0 0 0 0 0
Nghost:          12654 ave       12654 max       12654 min
Histogram: 1 0 0 0 0 0 0 0 0 0
Neighs:              0 ave           0 max           0 min
Histogram: 1 0 0 0 0 0 0 0 0 0
FullNghs:       490432 ave      490432 max      490432 min
Histogram: 1 0 0 0 0 0 0 0 0 0

Total # of neighbors = 490432
Ave neighs/atom = 28.381481
Neighbor list builds = 510
Dangerous builds = 0
WARNING: Fix thermal/conductivity comes before fix ave/chunk (src/fix_thermal_conductivity.cpp:118)
Setting up Verlet run ...
  Unit style    : metal
  Current step  : 200000
  Time step     : 0.001
Per MPI rank memory allocation (min/avg/max) = 8.963 | 8.963 | 8.963 Mbytes
   Step          Temp          PotEng         KinEng         TotEng         Press        f_thermal   
    200000   300.43582     -79319.405      671.01922     -78648.386      693.66558      228.58391    
    210000   300.87908     -79320.4        672.00922     -78648.391      546.96828      240.05848    
    220000   299.51547     -79317.349      668.96361     -78648.385      597.26255      251.2011     
    230000   300.17444     -79318.825      670.43542     -78648.389      475.45687      262.32793    
    240000   301.02643     -79320.733      672.33833     -78648.394      516.37361      273.58077    
    250000   302.11497     -79323.161      674.76956     -78648.391      656.77697      284.61907    
    260000   300.7463      -79320.099      671.71268     -78648.386      737.60442      296.10344    
    270000   300.27133     -79319.041      670.65182     -78648.389      522.64983      307.64971    
    280000   300.26742     -79319.031      670.6431      -78648.388      524.88861      318.26768    
    290000   299.50788     -79317.326      668.94666     -78648.379      589.74939      329.72835    
    300000   303.02787     -79325.2        676.80853     -78648.391      698.96739      340.89021    
    310000   298.80217     -79315.75       667.37048     -78648.38       745.66693      351.91407    
    320000   299.98929     -79318.405      670.02189     -78648.384      598.71591      363.07393    
    330000   298.72657     -79315.575      667.20162     -78648.373      659.67544      374.2937     
    340000   300.47996     -79319.498      671.11781     -78648.381      745.45997      385.46454    
    350000   300.12597     -79318.71       670.32717     -78648.383      506.87553      396.64528    
    360000   298.60587     -79315.309      666.93203     -78648.377      578.70883      408.16373    
    370000   300.37767     -79319.271      670.88933     -78648.382      717.92605      419.2835     
    380000   300.60735     -79319.782      671.40232     -78648.38       401.91294      430.73138    
    390000   300.8401      -79320.305      671.92217     -78648.383      580.3363       442.41769    
    400000   301.62562     -79322.059      673.67662     -78648.383      719.01276      453.65788    
    410000   299.65662     -79317.662      669.27889     -78648.383      444.59179      465.03823    
    420000   301.26594     -79321.256      672.87327     -78648.383      786.76809      476.33816    
    430000   300.78557     -79320.178      671.80038     -78648.378      568.80579      487.63423    
    440000   300.58802     -79319.742      671.35916     -78648.383      488.85248      498.75291    
    450000   302.7521      -79324.581      676.19259     -78648.388      635.01862      510.80982    
    460000   297.55595     -79312.97       664.58707     -78648.383      559.66894      522.5881     
    470000   299.48229     -79317.268      668.88951     -78648.378      521.4815       534.40439    
    480000   300.49925     -79319.539      671.16088     -78648.378      556.10025      545.94807    
    490000   300.3758      -79319.268      670.88516     -78648.383      754.71396      557.22957    
    500000   299.56915     -79317.462      669.08351     -78648.379      550.84418      568.75914    
    510000   300.02511     -79318.482      670.1019      -78648.381      620.02112      580.40239    
    520000   299.33436     -79316.94       668.55912     -78648.381      589.3655       591.88369    
    530000   298.27929     -79314.575      666.20263     -78648.372      581.41258      603.42739    
    540000   301.24023     -79321.205      672.81586     -78648.389      593.66303      614.67969    
    550000   300.22273     -79318.93       670.54328     -78648.387      550.33817      625.99185    
    560000   298.34235     -79314.719      666.34349     -78648.376      595.80222      637.40681    
    570000   301.98289     -79322.861      674.47456     -78648.386      531.07219      648.79722    
    580000   299.60219     -79317.533      669.15731     -78648.376      666.27952      660.12118    
    590000   300.37928     -79319.273      670.89292     -78648.38       732.47153      671.35821    
    600000   304.15293     -79327.715      679.32133     -78648.394      603.57367      682.68491    
Loop time of 16974 on 1 procs for 400000 steps with 17280 atoms

Performance: 2.036 ns/day, 11.788 hours/ns, 23.565 timesteps/s, 407.210 katom-step/s
91.8% CPU use with 1 MPI tasks x 1 OpenMP threads

MPI task timing breakdown:
Section |  min time  |  avg time  |  max time  |%varavg| %total
---------------------------------------------------------------
Pair    | 16760      | 16760      | 16760      |   0.0 | 98.74
Neigh   | 23.764     | 23.764     | 23.764     |   0.0 |  0.14
Comm    | 66.474     | 66.474     | 66.474     |   0.0 |  0.39
Output  | 0.020583   | 0.020583   | 0.020583   |   0.0 |  0.00
Modify  | 83.155     | 83.155     | 83.155     |   0.0 |  0.49
Other   |            | 40.81      |            |       |  0.24

Nlocal:          17280 ave       17280 max       17280 min
Histogram: 1 0 0 0 0 0 0 0 0 0
Nghost:          12682 ave       12682 max       12682 min
Histogram: 1 0 0 0 0 0 0 0 0 0
Neighs:              0 ave           0 max           0 min
Histogram: 1 0 0 0 0 0 0 0 0 0
FullNghs:       490654 ave      490654 max      490654 min
Histogram: 1 0 0 0 0 0 0 0 0 0

Total # of neighbors = 490654
Ave neighs/atom = 28.394329
Neighbor list builds = 888
Dangerous builds = 0
RESULT LEN=60 lz=325.54753234560268993 lx=32.554753234558802433 ly=32.554753234558802433 energy_total=454.10100364346402557 f_thermal=682.68491348071574976
Total wall time: 7:26:40
