LAMMPS (7 Feb 2024 - Update 1)
OMP_NUM_THREADS environment is not set. Defaulting to 1 thread. (src/comm.cpp:98)
  using 1 OpenMP thread(s) per MPI task
Lattice spacing in x,y,z = 5.431 5.431 5.431
Created orthogonal box = (0 0 0) to (32.586 32.586 217.24)
  1 by 1 by 1 MPI processor grid
Created 11520 atoms
  using lattice units in orthogonal box = (0 0 0) to (32.586 32.586 217.24)
  create_atoms CPU = 0.012 seconds
Reading tersoff potential file Si.tersoff with DATE: 2007-10-25
Neighbor list info ...
  update: every = 1 steps, delay = 0 steps, check = yes
  max neighbors/atom: 2000, page size: 100000
  master list distance cutoff = 5.2
  ghost atom cutoff = 5.2
  binsize = 2.6, bins = 13 13 84
  1 neighbor lists, perpetual/occasional/extra = 1 0 0
  (1) pair tersoff, perpetual
      attributes: full, newton on
      pair build: full/bin/atomonly
      stencil: full/bin/3d
      bin: standard
Setting up cg style minimization ...
  Unit style    : metal
  Current step  : 0
Per MPI rank memory allocation (min/avg/max) = 9.271 | 9.271 | 9.271 Mbytes
   Step          Temp          E_pair         E_mol          TotEng         Press     
         0   0             -53342.347      0             -53342.347      124.6582     
         1   0             -53342.347      0             -53342.347      124.6582     
Loop time of 0.0744155 on 1 procs for 1 steps with 11520 atoms

97.1% CPU use with 1 MPI tasks x 1 OpenMP threads

Minimization stats:
  Stopping criterion = energy tolerance
  Energy initial, next-to-last, final = 
     -53342.3469796702  -53342.3469796702  -53342.3469796702
  Force two-norm initial, final = 1.4558086e-11 1.450371e-11
  Force max component initial, final = 2.3987756e-13 2.4249353e-13
  Final line search alpha, max atom move = 1 2.4249353e-13
  Iterations, force evaluations = 1 2

MPI task timing breakdown:
Section |  min time  |  avg time  |  max time  |%varavg| %total
---------------------------------------------------------------
Pair    | 0.073413   | 0.073413   | 0.073413   |   0.0 | 98.65
Neigh   | 0          | 0          | 0          |   0.0 |  0.00
Comm    | 0.00022314 | 0.00022314 | 0.00022314 |   0.0 |  0.30
Output  | 0          | 0          | 0          |   0.0 |  0.00
Modify  | 0          | 0          | 0          |   0.0 |  0.00
Other   |            | 0.0007793  |            |       |  1.05

Nlocal:          11520 ave       11520 max       11520 min
Histogram: 1 0 0 0 0 0 0 0 0 0
Nghost:           8569 ave        8569 max        8569 min
Histogram: 1 0 0 0 0 0 0 0 0 0
Neighs:              0 ave           0 max           0 min
Histogram: 1 0 0 0 0 0 0 0 0 0
FullNghs:       322560 ave      322560 max      322560 min
Histogram: 1 0 0 0 0 0 0 0 0 0

Total # of neighbors = 322560
Ave neighs/atom = 28
Neighbor list builds = 0
Dangerous builds = 0
Setting up Verlet run ...
  Unit style    : metal
  Current step  : 0
  Time step     : 0.0005
Per MPI rank memory allocation (min/avg/max) = 7.021 | 7.021 | 7.021 Mbytes
   Step          Temp          PotEng         Press          Volume           Lz          Density    
         0   300           -53342.347      2192.9789      230675.73      217.24         2.3290245    
      2000   286.19091     -52872.114      294.1668       229915         217.00093      2.3367307    
      4000   296.19148     -52884.757     -60.398474      230275.48      217.11428      2.3330727    
      6000   298.9459      -52882.944      266.86266      230162.43      217.07875      2.3342186    
      8000   301.17623     -52883.939      199.9643       230184.27      217.08561      2.3339972    
     10000   295.93555     -52879.424      82.358136      230128.24      217.068        2.3345654    
     12000   298.67049     -52880.005      8.6311638      230168.9       217.08078      2.334153     
     14000   298.66884     -52884.482     -31.914236      230174.22      217.08245      2.3340991    
     16000   298.76333     -52877.703     -489.30777      230297.59      217.12123      2.3328487    
     18000   304.41989     -52884.523     -568.79235      230330.25      217.13149      2.332518     
     20000   296.70898     -52878.115     -121.68325      230177.34      217.08343      2.3340675    
     22000   294.84486     -52880.836      164.97117      230151.5       217.07531      2.3343295    
     24000   301.18281     -52884.754      304.82586      230119.95      217.06539      2.3346496    
     26000   298.93123     -52876.333      268.98933      230122.28      217.06612      2.3346259    
     28000   298.47631     -52880.462      1326.2209      229924.22      217.00383      2.336637     
     30000   301.90609     -52891.024      383.41112      230148.8       217.07446      2.3343569    
     32000   299.48887     -52881.685      304.455        230109.61      217.06214      2.3347544    
     34000   300.22117     -52882.102      576.59164      230054.24      217.04473      2.3353163    
     36000   300.30281     -52880.246      142.61309      230140.65      217.0719       2.3344396    
     38000   301.78961     -52878.113     -380.8098       230268.4       217.11206      2.3331445    
     40000   297.72729     -52880.675     -311.59351      230232.05      217.10063      2.3335128    
     42000   301.53997     -52882.025     -452.11601      230253.11      217.10725      2.3332994    
     44000   299.14616     -52877.341      566.62419      229971.87      217.01882      2.3361528    
     46000   303.73877     -52879.919      695.86147      230055.98      217.04527      2.3352988    
     48000   299.98998     -52880.108      268.71483      230095.55      217.05772      2.3348971    
     50000   305.91071     -52885.897      410.56373      230078.98      217.05251      2.3350653    
     52000   300.36273     -52882.126      500.16723      230050.51      217.04356      2.3353542    
     54000   299.19378     -52877.518      277.03573      230103.7       217.06028      2.3348144    
     56000   303.70387     -52881.296      324.32111      230097.13      217.05821      2.3348811    
     58000   299.38654     -52881.734      532.33405      230029.69      217.03701      2.3355656    
     60000   303.79158     -52883.056      537.13023      230072.59      217.0505       2.3351301    
Loop time of 1964.18 on 1 procs for 60000 steps with 11520 atoms

Performance: 1.320 ns/day, 18.187 hours/ns, 30.547 timesteps/s, 351.903 katom-step/s
97.4% CPU use with 1 MPI tasks x 1 OpenMP threads

MPI task timing breakdown:
Section |  min time  |  avg time  |  max time  |%varavg| %total
---------------------------------------------------------------
Pair    | 1926.2     | 1926.2     | 1926.2     |   0.0 | 98.06
Neigh   | 1.6219     | 1.6219     | 1.6219     |   0.0 |  0.08
Comm    | 4.5803     | 4.5803     | 4.5803     |   0.0 |  0.23
Output  | 0.23005    | 0.23005    | 0.23005    |   0.0 |  0.01
Modify  | 26.912     | 26.912     | 26.912     |   0.0 |  1.37
Other   |            | 4.671      |            |       |  0.24

Nlocal:          11520 ave       11520 max       11520 min
Histogram: 1 0 0 0 0 0 0 0 0 0
Nghost:           8852 ave        8852 max        8852 min
Histogram: 1 0 0 0 0 0 0 0 0 0
Neighs:              0 ave           0 max           0 min
Histogram: 1 0 0 0 0 0 0 0 0 0
FullNghs:       326794 ave      326794 max      326794 min
Histogram: 1 0 0 0 0 0 0 0 0 0

Total # of neighbors = 326794
Ave neighs/atom = 28.367535
Neighbor list builds = 73
Dangerous builds = 0
Setting up Verlet run ...
  Unit style    : metal
  Current step  : 60000
  Time step     : 0.0005
Per MPI rank memory allocation (min/avg/max) = 7.026 | 7.026 | 7.026 Mbytes
   Step          Temp          PotEng         Press          Volume           Lz          Density    
     60000   303.79158     -52883.056      537.13023      230072.59      217.0505       2.3351301    
     62000   300.90361     -52876.94       342.77012      230072.59      217.0505       2.3351301    
     64000   302.27241     -52890.05       453.26706      230072.59      217.0505       2.3351301    
     66000   298.93894     -52881.104      247.15252      230072.59      217.0505       2.3351301    
     68000   300.24915     -52881.369      374.28058      230072.59      217.0505       2.3351301    
     70000   301.1915      -52887.804      339.14156      230072.59      217.0505       2.3351301    
     72000   298.53127     -52883.099      350.3614       230072.59      217.0505       2.3351301    
     74000   303.02632     -52884.667      443.40049      230072.59      217.0505       2.3351301    
     76000   302.66675     -52884.882      208.53612      230072.59      217.0505       2.3351301    
     78000   295.63443     -52879.856      262.27493      230072.59      217.0505       2.3351301    
     80000   302.30072     -52883.137      242.52306      230072.59      217.0505       2.3351301    
     82000   305.11221     -52878.975      198.18276      230072.59      217.0505       2.3351301    
     84000   296.92001     -52884.665      245.36257      230072.59      217.0505       2.3351301    
     86000   301.67608     -52888.946      270.01625      230072.59      217.0505       2.3351301    
     88000   299.56744     -52875.354     -7.0721603      230072.59      217.0505       2.3351301    
     90000   302.14168     -52877.431      51.02306       230072.59      217.0505       2.3351301    
     92000   300.48698     -52881.542      221.16851      230072.59      217.0505       2.3351301    
     94000   300.18521     -52875.045      174.65413      230072.59      217.0505       2.3351301    
     96000   308.52452     -52878.734      676.66254      230072.59      217.0505       2.3351301    
     98000   301.79899     -52874.732      173.71544      230072.59      217.0505       2.3351301    
    100000   298.51149     -52883.357      460.9283       230072.59      217.0505       2.3351301    
Loop time of 1636.66 on 1 procs for 40000 steps with 11520 atoms

Performance: 1.056 ns/day, 22.731 hours/ns, 24.440 timesteps/s, 281.548 katom-step/s
97.3% CPU use with 1 MPI tasks x 1 OpenMP threads

MPI task timing breakdown:
Section |  min time  |  avg time  |  max time  |%varavg| %total
---------------------------------------------------------------
Pair    | 1613.9     | 1613.9     | 1613.9     |   0.0 | 98.61
Neigh   | 0.91975    | 0.91975    | 0.91975    |   0.0 |  0.06
Comm    | 5.9963     | 5.9963     | 5.9963     |   0.0 |  0.37
Output  | 0.0043587  | 0.0043587  | 0.0043587  |   0.0 |  0.00
Modify  | 12.214     | 12.214     | 12.214     |   0.0 |  0.75
Other   |            | 3.646      |            |       |  0.22

Nlocal:          11520 ave       11520 max       11520 min
Histogram: 1 0 0 0 0 0 0 0 0 0
Nghost:           8814 ave        8814 max        8814 min
Histogram: 1 0 0 0 0 0 0 0 0 0
Neighs:              0 ave           0 max           0 min
Histogram: 1 0 0 0 0 0 0 0 0 0
FullNghs:       326912 ave      326912 max      326912 min
Histogram: 1 0 0 0 0 0 0 0 0 0

Total # of neighbors = 326912
Ave neighs/atom = 28.377778
Neighbor list builds = 37
Dangerous builds = 0
BOX_v4 lx=32.557574863549035626 ly=32.557574863549035626 lz=217.05049909032376831
WARNING: Fix thermal/conductivity comes before fix ave/chunk (src/fix_thermal_conductivity.cpp:118)
Setting up Verlet run ...
  Unit style    : metal
  Current step  : 0
  Time step     : 0.0005
Per MPI rank memory allocation (min/avg/max) = 7.527 | 7.527 | 7.527 Mbytes
   Step          Temp          PotEng         KinEng         TotEng         Press        f_thermal   
         0   298.51149     -52883.357      444.46797     -52438.889      460.9283       0            
     10000   298.59737     -52883.486      444.59585     -52438.89       204.95414      19.18578     
     20000   295.92416     -52879.503      440.61557     -52438.887      140.8584       37.490084    
     30000   299.32245     -52884.566      445.67544     -52438.89       358.44025      55.017453    
     40000   298.46224     -52883.283      444.39464     -52438.889      332.672        71.633525    
     50000   300.57724     -52886.433      447.54376     -52438.889      552.23753      89.299233    
     60000   298.78652     -52883.766      444.87747     -52438.888      485.58777      107.18838    
     70000   297.63946     -52882.057      443.16956     -52438.888      190.04506      124.75586    
     80000   298.55818     -52883.426      444.53749     -52438.888      369.87017      141.86426    
     90000   301.06825     -52887.164      448.27485     -52438.889      390.86371      158.82033    
    100000   299.13179     -52884.279      445.39157     -52438.888      377.90744      176.41883    
    110000   297.53975     -52881.907      443.0211      -52438.886      456.42748      193.8589     
    120000   293.9453      -52876.554      437.66915     -52438.884      120.60598      210.71909    
    130000   298.15551     -52882.824      443.93793     -52438.886      278.56959      228.61447    
    140000   299.1239      -52884.267      445.37982     -52438.887      282.98405      245.72729    
    150000   297.4606      -52881.79       442.90324     -52438.886      265.32962      264.25763    
    160000   299.00013     -52884.081      445.19553     -52438.886      419.64697      282.04467    
    170000   298.18424     -52882.865      443.98071     -52438.884      322.80431      299.89718    
    180000   297.86689     -52882.393      443.50819     -52438.885      396.45698      317.76334    
    190000   299.22491     -52884.413      445.53022     -52438.883      667.04966      334.74386    
    200000   298.1249      -52882.777      443.89236     -52438.884      556.2051       352.15655    
    210000   300.20143     -52885.869      446.98421     -52438.884      815.26525      369.57979    
    220000   299.13742     -52884.283      445.39995     -52438.883      676.02084      386.61534    
    230000   299.41972     -52884.704      445.82028     -52438.883      628.56048      403.66567    
    240000   297.34667     -52881.616      442.73362     -52438.882      452.16376      421.3282     
    250000   299.6697      -52885.077      446.19248     -52438.885      401.97521      438.44755    
    260000   296.25654     -52879.994      441.11047     -52438.883      499.41325      455.78502    
    270000   297.7193      -52882.171      443.28844     -52438.883      534.29827      472.87145    
    280000   298.85206     -52883.859      444.97507     -52438.884      593.12501      489.89993    
    290000   297.00212     -52881.103      442.22059     -52438.882      425.35642      507.5149     
    300000   298.71066     -52883.647      444.76453     -52438.882      128.93424      524.85683    
    310000   298.23961     -52882.943      444.06315     -52438.88       579.8524       541.49386    
    320000   295.60367     -52879.017      440.13837     -52438.879      121.09349      558.8397     
    330000   300.77222     -52886.716      447.83408     -52438.882      304.47746      576.1623     
    340000   300.50134     -52886.313      447.43076     -52438.882      333.3968       593.43758    
    350000   300.34782     -52886.084      447.20217     -52438.881      503.29964      610.93313    
    360000   297.02922     -52881.141      442.26095     -52438.88       323.64839      628.39574    
    370000   300.25112     -52885.939      447.05818     -52438.881      479.08431      645.44432    
    380000   298.49186     -52883.318      444.43874     -52438.879      386.02934      662.65188    
    390000   298.69914     -52883.626      444.74738     -52438.879      645.27195      680.16385    
    400000   298.09744     -52882.73       443.85147     -52438.879      453.64424      696.92298    
Loop time of 11502.3 on 1 procs for 400000 steps with 11520 atoms

Performance: 1.502 ns/day, 15.975 hours/ns, 34.776 timesteps/s, 400.616 katom-step/s
97.2% CPU use with 1 MPI tasks x 1 OpenMP threads

MPI task timing breakdown:
Section |  min time  |  avg time  |  max time  |%varavg| %total
---------------------------------------------------------------
Pair    | 11366      | 11366      | 11366      |   0.0 | 98.82
Neigh   | 5.6864     | 5.6864     | 5.6864     |   0.0 |  0.05
Comm    | 44.684     | 44.684     | 44.684     |   0.0 |  0.39
Output  | 0.11697    | 0.11697    | 0.11697    |   0.0 |  0.00
Modify  | 57.223     | 57.223     | 57.223     |   0.0 |  0.50
Other   |            | 28.08      |            |       |  0.24

Nlocal:          11520 ave       11520 max       11520 min
Histogram: 1 0 0 0 0 0 0 0 0 0
Nghost:           8736 ave        8736 max        8736 min
Histogram: 1 0 0 0 0 0 0 0 0 0
Neighs:              0 ave           0 max           0 min
Histogram: 1 0 0 0 0 0 0 0 0 0
FullNghs:       327008 ave      327008 max      327008 min
Histogram: 1 0 0 0 0 0 0 0 0 0

Total # of neighbors = 327008
Ave neighs/atom = 28.386111
Neighbor list builds = 291
Dangerous builds = 0
WARNING: Fix thermal/conductivity comes before fix ave/chunk (src/fix_thermal_conductivity.cpp:118)
Setting up Verlet run ...
  Unit style    : metal
  Current step  : 400000
  Time step     : 0.0005
Per MPI rank memory allocation (min/avg/max) = 7.527 | 7.527 | 7.527 Mbytes
   Step          Temp          PotEng         KinEng         TotEng         Press        f_thermal   
    400000   298.09744     -52882.73       443.85147     -52438.879      453.64424      696.92298    
    410000   298.04967     -52882.659      443.78034     -52438.878      297.90643      714.21044    
    420000   299.62592     -52885.006      446.1273      -52438.879      456.42676      731.5805     
    430000   299.5171      -52884.845      445.96527     -52438.879      161.17731      748.63231    
    440000   296.83323     -52880.846      441.96912     -52438.876      232.87531      766.54116    
    450000   298.72252     -52883.66       444.78218     -52438.878      219.67625      783.79771    
    460000   298.4326      -52883.227      444.3505      -52438.877      91.603183      800.90945    
    470000   297.58886     -52881.971      443.09422     -52438.877      265.25967      817.50024    
    480000   299.12872     -52884.263      445.38699     -52438.876      440.14357      834.71195    
    490000   298.66042     -52883.566      444.68972     -52438.877      378.70733      851.4254     
    500000   299.12304     -52884.256      445.37854     -52438.877      558.70534      868.54357    
    510000   297.4294      -52881.733      442.85679     -52438.877      564.08148      885.61645    
    520000   298.76795     -52883.727      444.84982     -52438.878      341.05219      903.03359    
    530000   299.40217     -52884.67       445.79415     -52438.876      604.76816      920.69469    
    540000   299.21624     -52884.395      445.51731     -52438.878      339.18598      938.22129    
    550000   298.23942     -52882.939      444.06287     -52438.876      349.64889      956.09605    
    560000   300.28054     -52885.978      447.102       -52438.876      502.38624      972.73332    
    570000   300.86346     -52886.847      447.96993     -52438.877      350.88321      990.0189     
    580000   297.89071     -52882.42       443.54366     -52438.876      245.82161      1007.4503    
    590000   300.48503     -52886.284      447.40646     -52438.877      737.92153      1025.4722    
    600000   298.81961     -52883.803      444.92674     -52438.876      535.29268      1042.4712    
    610000   299.91229     -52885.43       446.55369     -52438.876      431.91401      1060.1928    
    620000   298.10522     -52882.739      443.86305     -52438.876      289.04415      1077.4154    
    630000   297.52682     -52881.876      443.00185     -52438.874      586.92066      1093.7904    
    640000   297.91849     -52882.46       443.58502     -52438.875      332.70258      1111.141     
    650000   297.15926     -52881.329      442.45457     -52438.874      510.0736       1128.9866    
    660000   298.41417     -52883.196      444.32307     -52438.873      533.5252       1146.5319    
    670000   296.4168      -52880.222      441.34908     -52438.873      522.57571      1163.8681    
    680000   297.75165     -52882.211      443.33661     -52438.874      385.09293      1180.6739    
    690000   298.50709     -52883.336      444.46142     -52438.874      299.4899       1197.3593    
    700000   300.71905     -52886.63       447.75491     -52438.875      400.54344      1214.5932    
    710000   299.73788     -52885.169      446.294       -52438.875      350.56001      1232.1493    
    720000   296.08083     -52879.721      440.84884     -52438.872      142.44612      1249.2735    
    730000   295.20138     -52878.411      439.53939     -52438.871      396.26199      1267.2034    
    740000   296.92147     -52880.973      442.10051     -52438.872      521.89969      1285.0992    
    750000   299.99171     -52885.545      446.67194     -52438.874      445.33779      1302.2622    
    760000   299.24768     -52884.436      445.56412     -52438.872      443.56147      1319.0337    
    770000   298.21255     -52882.896      444.02286     -52438.873      405.75042      1336.091     
    780000   298.93183     -52883.966      445.09383     -52438.873      436.23743      1352.9082    
    790000   298.62219     -52883.504      444.63279     -52438.872      381.92064      1369.9177    
    800000   297.29053     -52881.521      442.65002     -52438.871      372.55833      1387.4341    
    810000   301.01175     -52887.064      448.19072     -52438.874      485.80336      1404.4148    
    820000   297.52559     -52881.872      443.00002     -52438.872      299.29423      1421.9063    
    830000   297.33493     -52881.587      442.71613     -52438.871      376.37097      1439.5653    
    840000   298.17577     -52882.838      443.9681      -52438.87       712.14883      1457.1596    
    850000   300.75314     -52886.678      447.80567     -52438.872      497.60513      1474.928     
    860000   300.96881     -52887          448.12679     -52438.873      427.28743      1491.9767    
    870000   298.09157     -52882.713      443.84272     -52438.871      429.29561      1509.0733    
    880000   300.73637     -52886.654      447.7807      -52438.873      104.76439      1526.9147    
    890000   299.24915     -52884.436      445.5663      -52438.869      350.99568      1544.4707    
    900000   298.79887     -52883.767      444.89586     -52438.871      336.72948      1562.1152    
    910000   301.59103     -52887.926      449.05324     -52438.872      224.84753      1579.3282    
    920000   300.96981     -52886.999      448.12828     -52438.871      369.05097      1596.0545    
    930000   298.41313     -52883.191      444.32151     -52438.869      396.00359      1612.8933    
    940000   300.11129     -52885.72       446.84998     -52438.87       530.74332      1630.4877    
    950000   297.14965     -52881.31       442.44026     -52438.87       242.29215      1647.5876    
    960000   301.06567     -52887.142      448.27102     -52438.87       629.71604      1664.7308    
    970000   299.74209     -52885.17       446.30027     -52438.87       548.39373      1682.2295    
    980000   297.88432     -52882.403      443.53414     -52438.869      331.64138      1699.5362    
    990000   295.16447     -52878.352      439.48443     -52438.868      322.62579      1717.0055    
   1000000   297.02303     -52881.12       442.25173     -52438.869      324.07366      1734.2494    
   1010000   298.28027     -52882.992      444.12369     -52438.869      327.02671      1751.4303    
   1020000   296.61572     -52880.512      441.64527     -52438.867      450.6668       1769.3193    
   1030000   297.9445      -52882.492      443.62376     -52438.869      315.26353      1786.7213    
   1040000   297.50487     -52881.838      442.96917     -52438.869      246.62313      1803.8258    
   1050000   296.5995      -52880.49       441.62112     -52438.869      261.22903      1821.619     
   1060000   300.01358     -52885.575      446.7045      -52438.871      574.9943       1838.683     
   1070000   299.1987      -52884.361      445.49119     -52438.87       380.36873      1855.8186    
   1080000   299.98028     -52885.524      446.65492     -52438.87       460.24816      1873.9307    
   1090000   299.22346     -52884.397      445.52806     -52438.869      257.30192      1891.2752    
   1100000   299.47821     -52884.776      445.90736     -52438.868      409.2472       1909.2855    
   1110000   299.44387     -52884.724      445.85624     -52438.868      446.84025      1927.0963    
   1120000   300.14376     -52885.767      446.89833     -52438.869      332.03159      1944.3706    
   1130000   300.16239     -52885.794      446.92608     -52438.868      390.42686      1961.0976    
   1140000   296.78305     -52880.761      441.89441     -52438.866      374.92777      1978.5656    
   1150000   301.00089     -52887.044      448.17455     -52438.869      334.65044      1995.2585    
   1160000   297.25008     -52881.455      442.5898      -52438.865      358.86378      2012.9485    
   1170000   298.6702      -52883.571      444.70428     -52438.867      415.02897      2029.8495    
   1180000   299.32223     -52884.542      445.67511     -52438.867      485.93227      2046.9071    
   1190000   298.20967     -52882.886      444.01857     -52438.868      388.13193      2063.7726    
   1200000   299.03961     -52884.122      445.25431     -52438.867      418.36159      2080.715     
Loop time of 20000.1 on 1 procs for 800000 steps with 11520 atoms

Performance: 1.728 ns/day, 13.889 hours/ns, 40.000 timesteps/s, 460.797 katom-step/s
96.1% CPU use with 1 MPI tasks x 1 OpenMP threads

MPI task timing breakdown:
Section |  min time  |  avg time  |  max time  |%varavg| %total
---------------------------------------------------------------
Pair    | 19792      | 19792      | 19792      |   0.0 | 98.96
Neigh   | 7.9907     | 7.9907     | 7.9907     |   0.0 |  0.04
Comm    | 61.09      | 61.09      | 61.09      |   0.0 |  0.31
Output  | 0.048134   | 0.048134   | 0.048134   |   0.0 |  0.00
Modify  | 95.486     | 95.486     | 95.486     |   0.0 |  0.48
Other   |            | 44.01      |            |       |  0.22

Nlocal:          11520 ave       11520 max       11520 min
Histogram: 1 0 0 0 0 0 0 0 0 0
Nghost:           8669 ave        8669 max        8669 min
Histogram: 1 0 0 0 0 0 0 0 0 0
Neighs:              0 ave           0 max           0 min
Histogram: 1 0 0 0 0 0 0 0 0 0
FullNghs:       326936 ave      326936 max      326936 min
Histogram: 1 0 0 0 0 0 0 0 0 0

Total # of neighbors = 326936
Ave neighs/atom = 28.379861
Neighbor list builds = 491
Dangerous builds = 0
RESULT_v4 LEN=40 lz=217.05049909032376831 lx=32.557574863549035626 ly=32.557574863549035626 energy_total=1383.7919924100099252 f_thermal=2080.7149759498247477
Total wall time: 9:45:03
