LAMMPS (7 Feb 2024 - Update 1)
OMP_NUM_THREADS environment is not set. Defaulting to 1 thread. (src/comm.cpp:98)
  using 1 OpenMP thread(s) per MPI task
Lattice spacing in x,y,z = 5.431 5.431 5.431
Created orthogonal box = (0 0 0) to (32.586 32.586 162.93)
  1 by 1 by 1 MPI processor grid
Created 8640 atoms
  using lattice units in orthogonal box = (0 0 0) to (32.586 32.586 162.93)
  create_atoms CPU = 0.003 seconds
Reading tersoff potential file Si.tersoff with DATE: 2007-10-25
Neighbor list info ...
  update: every = 1 steps, delay = 0 steps, check = yes
  max neighbors/atom: 2000, page size: 100000
  master list distance cutoff = 5.2
  ghost atom cutoff = 5.2
  binsize = 2.6, bins = 13 13 63
  1 neighbor lists, perpetual/occasional/extra = 1 0 0
  (1) pair tersoff, perpetual
      attributes: full, newton on
      pair build: full/bin/atomonly
      stencil: full/bin/3d
      bin: standard
Setting up cg style minimization ...
  Unit style    : metal
  Current step  : 0
Per MPI rank memory allocation (min/avg/max) = 5.366 | 5.366 | 5.366 Mbytes
   Step          Temp          E_pair         E_mol          TotEng         Press     
         0   0             -40006.76       0             -40006.76       124.6582     
         1   0             -40006.76       0             -40006.76       124.6582     
Loop time of 0.0535494 on 1 procs for 1 steps with 8640 atoms

93.4% CPU use with 1 MPI tasks x 1 OpenMP threads

Minimization stats:
  Stopping criterion = energy tolerance
  Energy initial, next-to-last, final = 
     -40006.7602347694  -40006.7602347694  -40006.7602347694
  Force two-norm initial, final = 1.0197593e-11 1.0139555e-11
  Force max component initial, final = 2.3987756e-13 2.4249353e-13
  Final line search alpha, max atom move = 1 2.4249353e-13
  Iterations, force evaluations = 1 2

MPI task timing breakdown:
Section |  min time  |  avg time  |  max time  |%varavg| %total
---------------------------------------------------------------
Pair    | 0.052815   | 0.052815   | 0.052815   |   0.0 | 98.63
Neigh   | 0          | 0          | 0          |   0.0 |  0.00
Comm    | 0.00013348 | 0.00013348 | 0.00013348 |   0.0 |  0.25
Output  | 0          | 0          | 0          |   0.0 |  0.00
Modify  | 0          | 0          | 0          |   0.0 |  0.00
Other   |            | 0.000601   |            |       |  1.12

Nlocal:           8640 ave        8640 max        8640 min
Histogram: 1 0 0 0 0 0 0 0 0 0
Nghost:           6639 ave        6639 max        6639 min
Histogram: 1 0 0 0 0 0 0 0 0 0
Neighs:              0 ave           0 max           0 min
Histogram: 1 0 0 0 0 0 0 0 0 0
FullNghs:       241920 ave      241920 max      241920 min
Histogram: 1 0 0 0 0 0 0 0 0 0

Total # of neighbors = 241920
Ave neighs/atom = 28
Neighbor list builds = 0
Dangerous builds = 0
Setting up Verlet run ...
  Unit style    : metal
  Current step  : 0
  Time step     : 0.001
Per MPI rank memory allocation (min/avg/max) = 4.241 | 4.241 | 4.241 Mbytes
   Step          Temp          PotEng         Press          Volume           Lz          Density    
         0   300           -40006.76       2192.919       173006.8       162.93         2.3290245    
      1000   295.95836     -39635.728      145.58266      172558.26      162.78907      2.3350785    
      2000   294.22504     -39665.334      439.20488      172623.7       162.80965      2.3341932    
      3000   302.403       -39653.581      37.401397      172710.54      162.83695      2.3330195    
      4000   299.06361     -39668.639     -212.53968      172814.56      162.86963      2.3316154    
      5000   306.11968     -39659.207     -92.302278      172751.43      162.8498       2.3324674    
      6000   291.86356     -39660.291      1381.3993      172396.09      162.73806      2.337275     
      7000   301.92107     -39655.195      34.124245      172673.47      162.82529      2.3335205    
      8000   298.64826     -39667.899     -477.86672      172809.52      162.86805      2.3316834    
      9000   306.53065     -39662.56      -269.65931      172756.86      162.8515       2.3323941    
     10000   297.51871     -39662.621     -111.65462      172678.65      162.82692      2.3334505    
     11000   297.22619     -39653.887      537.69438      172607.41      162.80453      2.3344135    
     12000   300.78079     -39665.193     -538.87795      172828.48      162.874        2.3314275    
     13000   303.15127     -39657.21      -780.52223      172815.8       162.87002      2.3315986    
     14000   297.03948     -39657.582      329.10388      172614.21      162.80667      2.3343216    
     15000   298.27493     -39656.904     -416.21108      172757.8       162.8518       2.3323813    
     16000   300.82259     -39665.198      223.145        172680.71      162.82757      2.3334227    
     17000   297.64467     -39660.582     -173.50188      172714.93      162.83833      2.3329603    
     18000   305.064       -39658.06      -223.3505       172734.22      162.84439      2.3326997    
     19000   300.21185     -39662.259      1254.144       172453.33      162.75607      2.3364993    
     20000   299.46229     -39664.739     -375.55088      172736.92      162.84524      2.3326632    
     21000   301.13054     -39662.247     -123.49166      172704.16      162.83494      2.3331059    
     22000   295.48041     -39660.172     -25.720304      172666.06      162.82297      2.3336205    
     23000   300.48529     -39658.33       476.30975      172541.35      162.78376      2.3353073    
     24000   297.48729     -39668.536     -89.21901       172697.9       162.83297      2.3331903    
     25000   298.32191     -39657.384      513.34397      172533.81      162.78138      2.3354094    
     26000   303.44442     -39661.262     -261.23558      172647.89      162.81725      2.3338662    
     27000   296.38823     -39661.785      564.15414      172539.09      162.78305      2.3353378    
     28000   301.94303     -39663.301      1214.2198      172437.95      162.75123      2.3367076    
     29000   301.82267     -39662.594     -448.965        172695.4       162.83219      2.3332241    
     30000   301.51674     -39657.664      35.373871      172641.21      162.81515      2.3339565    
Loop time of 547.41 on 1 procs for 30000 steps with 8640 atoms

Performance: 4.735 ns/day, 5.069 hours/ns, 54.804 timesteps/s, 473.502 katom-step/s
93.5% CPU use with 1 MPI tasks x 1 OpenMP threads

MPI task timing breakdown:
Section |  min time  |  avg time  |  max time  |%varavg| %total
---------------------------------------------------------------
Pair    | 537.6      | 537.6      | 537.6      |   0.0 | 98.21
Neigh   | 0.081471   | 0.081471   | 0.081471   |   0.0 |  0.01
Comm    | 1.0074     | 1.0074     | 1.0074     |   0.0 |  0.18
Output  | 0.0023302  | 0.0023302  | 0.0023302  |   0.0 |  0.00
Modify  | 7.7921     | 7.7921     | 7.7921     |   0.0 |  1.42
Other   |            | 0.9296     |            |       |  0.17

Nlocal:           8640 ave        8640 max        8640 min
Histogram: 1 0 0 0 0 0 0 0 0 0
Nghost:           6817 ave        6817 max        6817 min
Histogram: 1 0 0 0 0 0 0 0 0 0
Neighs:              0 ave           0 max           0 min
Histogram: 1 0 0 0 0 0 0 0 0 0
FullNghs:       245250 ave      245250 max      245250 min
Histogram: 1 0 0 0 0 0 0 0 0 0

Total # of neighbors = 245250
Ave neighs/atom = 28.385417
Neighbor list builds = 7
Dangerous builds = 0
Setting up Verlet run ...
  Unit style    : metal
  Current step  : 30000
  Time step     : 0.001
Per MPI rank memory allocation (min/avg/max) = 4.246 | 4.246 | 4.246 Mbytes
   Step          Temp          PotEng         Press          Volume           Lz          Density    
     30000   301.51674     -39657.664      35.373871      172641.21      162.81515      2.3339565    
     31000   297.76224     -39659.698     -32.199187      172641.21      162.81515      2.3339565    
     32000   302.64564     -39654.893     -58.693383      172641.21      162.81515      2.3339565    
     33000   300.51494     -39663.588      31.107442      172641.21      162.81515      2.3339565    
     34000   302.75608     -39662.984      107.19245      172641.21      162.81515      2.3339565    
     35000   299.11818     -39656.354      12.627966      172641.21      162.81515      2.3339565    
     36000   299.77942     -39662.081     -45.852683      172641.21      162.81515      2.3339565    
     37000   300.72337     -39657.687      80.555259      172641.21      162.81515      2.3339565    
     38000   301.70322     -39659.175     -68.205695      172641.21      162.81515      2.3339565    
     39000   296.94985     -39665.995      23.597625      172641.21      162.81515      2.3339565    
     40000   300.12474     -39660.925     -164.65018      172641.21      162.81515      2.3339565    
     41000   296.40047     -39660.112     -47.059514      172641.21      162.81515      2.3339565    
     42000   299.8436      -39659.416     -269.95811      172641.21      162.81515      2.3339565    
     43000   297.1855      -39657.46      -213.94678      172641.21      162.81515      2.3339565    
     44000   302.32275     -39664.084      48.174484      172641.21      162.81515      2.3339565    
     45000   301.71563     -39656.847     -401.59579      172641.21      162.81515      2.3339565    
     46000   303.77183     -39666.024      113.16303      172641.21      162.81515      2.3339565    
     47000   302.46339     -39660.256     -150.93965      172641.21      162.81515      2.3339565    
     48000   294.63607     -39663.71      -237.41778      172641.21      162.81515      2.3339565    
     49000   300.43792     -39658.526     -340.51237      172641.21      162.81515      2.3339565    
     50000   299.89381     -39664.853      8.4595188      172641.21      162.81515      2.3339565    
Loop time of 373.572 on 1 procs for 20000 steps with 8640 atoms

Performance: 4.626 ns/day, 5.189 hours/ns, 53.537 timesteps/s, 462.561 katom-step/s
93.4% CPU use with 1 MPI tasks x 1 OpenMP threads

MPI task timing breakdown:
Section |  min time  |  avg time  |  max time  |%varavg| %total
---------------------------------------------------------------
Pair    | 369.19     | 369.19     | 369.19     |   0.0 | 98.83
Neigh   | 0.2293     | 0.2293     | 0.2293     |   0.0 |  0.06
Comm    | 0.86498    | 0.86498    | 0.86498    |   0.0 |  0.23
Output  | 0.0016876  | 0.0016876  | 0.0016876  |   0.0 |  0.00
Modify  | 2.661      | 2.661      | 2.661      |   0.0 |  0.71
Other   |            | 0.6286     |            |       |  0.17

Nlocal:           8640 ave        8640 max        8640 min
Histogram: 1 0 0 0 0 0 0 0 0 0
Nghost:           6710 ave        6710 max        6710 min
Histogram: 1 0 0 0 0 0 0 0 0 0
Neighs:              0 ave           0 max           0 min
Histogram: 1 0 0 0 0 0 0 0 0 0
FullNghs:       245080 ave      245080 max      245080 min
Histogram: 1 0 0 0 0 0 0 0 0 0

Total # of neighbors = 245080
Ave neighs/atom = 28.365741
Neighbor list builds = 19
Dangerous builds = 0
BOX lx=32.563030927310478546 ly=32.563030927310478546 lz=162.8151546365488116
WARNING: Fix thermal/conductivity comes before fix ave/chunk (src/fix_thermal_conductivity.cpp:118)
Setting up Verlet run ...
  Unit style    : metal
  Current step  : 0
  Time step     : 0.001
Per MPI rank memory allocation (min/avg/max) = 4.497 | 4.497 | 4.497 Mbytes
   Step          Temp          PotEng         KinEng         TotEng         Press        f_thermal   
         0   299.89381     -39664.853      334.88493     -39329.968      8.4595188      0            
     10000   295.70155     -39660.165      330.20353     -39329.961     -247.8389       10.578649    
     20000   297.95708     -39662.69       332.72224     -39329.967     -429.11483      20.480414    
     30000   300.18312     -39665.174      335.20801     -39329.966     -84.508775      30.959277    
     40000   296.78365     -39661.375      331.41188     -39329.963     -283.72278      41.642535    
     50000   298.24984     -39663.013      333.04915     -39329.964     -189.44662      51.801118    
     60000   296.16587     -39660.682      330.72203     -39329.96      -152.29434      62.25356     
     70000   299.87761     -39664.833      334.86685     -39329.966      199.34482      72.763827    
     80000   296.95841     -39661.575      331.60704     -39329.968     -150.40498      83.370392    
     90000   299.23256     -39664.11       334.14653     -39329.964      36.68735       93.947073    
    100000   295.95187     -39660.452      330.48306     -39329.968     -304.43896      104.349      
    110000   299.54204     -39664.459      334.49213     -39329.967     -156.03957      115.18766    
    120000   300.20349     -39665.194      335.23075     -39329.963      78.254883      125.59021    
    130000   298.7174      -39663.533      333.57127     -39329.961     -25.279412      136.09304    
    140000   296.72405     -39661.306      331.34533     -39329.961     -16.273432      146.96638    
    150000   293.17233     -39657.334      327.37921     -39329.955     -269.96003      157.62062    
    160000   295.38663     -39659.813      329.85187     -39329.961     -44.738754      168.57196    
    170000   295.23984     -39659.65       329.68796     -39329.962     -42.65307       179.25727    
    180000   295.66704     -39660.121      330.165       -39329.956      288.0677       189.60471    
    190000   296.64334     -39661.22       331.2552      -39329.964     -262.77409      200.4859     
    200000   297.22157     -39661.868      331.90091     -39329.967     -385.8001       210.82937    
Loop time of 3734.4 on 1 procs for 200000 steps with 8640 atoms

Performance: 4.627 ns/day, 5.187 hours/ns, 53.556 timesteps/s, 462.724 katom-step/s
93.4% CPU use with 1 MPI tasks x 1 OpenMP threads

MPI task timing breakdown:
Section |  min time  |  avg time  |  max time  |%varavg| %total
---------------------------------------------------------------
Pair    | 3700.1     | 3700.1     | 3700.1     |   0.0 | 99.08
Neigh   | 2.4563     | 2.4563     | 2.4563     |   0.0 |  0.07
Comm    | 8.7294     | 8.7294     | 8.7294     |   0.0 |  0.23
Output  | 0.00087672 | 0.00087672 | 0.00087672 |   0.0 |  0.00
Modify  | 16.366     | 16.366     | 16.366     |   0.0 |  0.44
Other   |            | 6.709      |            |       |  0.18

Nlocal:           8640 ave        8640 max        8640 min
Histogram: 1 0 0 0 0 0 0 0 0 0
Nghost:           6751 ave        6751 max        6751 min
Histogram: 1 0 0 0 0 0 0 0 0 0
Neighs:              0 ave           0 max           0 min
Histogram: 1 0 0 0 0 0 0 0 0 0
FullNghs:       245034 ave      245034 max      245034 min
Histogram: 1 0 0 0 0 0 0 0 0 0

Total # of neighbors = 245034
Ave neighs/atom = 28.360417
Neighbor list builds = 204
Dangerous builds = 0
WARNING: Fix thermal/conductivity comes before fix ave/chunk (src/fix_thermal_conductivity.cpp:118)
Setting up Verlet run ...
  Unit style    : metal
  Current step  : 200000
  Time step     : 0.001
Per MPI rank memory allocation (min/avg/max) = 4.497 | 4.497 | 4.497 Mbytes
   Step          Temp          PotEng         KinEng         TotEng         Press        f_thermal   
    200000   297.22157     -39661.868      331.90091     -39329.967     -385.8001       210.82937    
    210000   299.20506     -39664.081      334.11582     -39329.965      32.15888       221.56422    
    220000   296.57389     -39661.141      331.17766     -39329.964     -25.596807      232.06867    
    230000   300.79011     -39665.855      335.88581     -39329.969      113.49752      242.84451    
    240000   298.56459     -39663.365      333.40063     -39329.964      157.14419      253.27039    
    250000   297.70963     -39662.412      332.44591     -39329.966     -110.53396      263.409      
    260000   296.9104      -39661.519      331.55343     -39329.965     -45.94001       273.92992    
    270000   297.60947     -39662.299      332.33406     -39329.965     -69.320344      284.28061    
    280000   300.59977     -39665.644      335.67327     -39329.97       5.7367918      294.97178    
    290000   298.5691      -39663.372      333.40566     -39329.966     -115.91868      305.50528    
    300000   299.24287     -39664.122      334.15804     -39329.964     -115.04173      315.8932     
    310000   298.19884     -39662.957      332.9922      -39329.965     -56.914043      326.63555    
    320000   297.43373     -39662.101      332.13782     -39329.963     -44.354234      337.66801    
    330000   298.30478     -39663.08       333.11051     -39329.969     -239.75291      348.28431    
    340000   299.92563     -39664.887      334.92047     -39329.967      229.81827      359.13025    
    350000   295.13657     -39659.531      329.57263     -39329.958      58.320051      369.49356    
    360000   297.26615     -39661.915      331.95069     -39329.964      65.272707      379.80627    
    370000   296.62223     -39661.194      331.23163     -39329.962     -181.12988      390.36004    
    380000   298.00566     -39662.741      332.77648     -39329.965      3.0862361      400.63508    
    390000   299.04878     -39663.907      333.94131     -39329.966      81.88943       411.32762    
    400000   298.72607     -39663.547      333.58095     -39329.966     -228.89653      421.50184    
    410000   298.9086      -39663.75       333.78477     -39329.965     -31.88743       431.58535    
    420000   300.72629     -39665.78       335.81455     -39329.966     -71.760586      442.20605    
    430000   295.768       -39660.24       330.27773     -39329.963     -308.39484      452.75943    
    440000   296.56339     -39661.129      331.16593     -39329.963     -151.6464       463.08196    
    450000   297.70976     -39662.406      332.44606     -39329.96       40.242999      473.55358    
    460000   299.29208     -39664.176      334.213       -39329.963      91.712873      484.00858    
    470000   297.68789     -39662.385      332.42164     -39329.963     -51.914243      494.5994     
    480000   297.12722     -39661.757      331.79555     -39329.961     -195.84095      504.5969     
    490000   298.34242     -39663.116      333.15253     -39329.964     -14.080746      514.71238    
    500000   297.17636     -39661.815      331.85043     -39329.964      0.72809527     525.48541    
    510000   297.57817     -39662.259      332.29911     -39329.96       219.44796      536.13291    
    520000   296.05128     -39660.549      330.59406     -39329.955      2.8856192      546.55125    
    530000   296.63922     -39661.213      331.25061     -39329.962     -330.86549      557.19404    
    540000   301.29516     -39666.415      336.4498      -39329.965      84.235914      567.78662    
    550000   296.67799     -39661.255      331.29391     -39329.961     -280.84613      577.87795    
    560000   297.1386      -39661.766      331.80825     -39329.958     -220.8271       588.71595    
    570000   301.42438     -39666.559      336.59409     -39329.965      44.663883      599.09912    
    580000   294.72786     -39659.072      329.11623     -39329.956     -59.574765      609.52536    
    590000   298.93369     -39663.775      333.81279     -39329.962      13.31651       619.88107    
    600000   299.58863     -39664.504      334.54415     -39329.959      125.55084      629.89966    
Loop time of 7792.45 on 1 procs for 400000 steps with 8640 atoms

Performance: 4.435 ns/day, 5.411 hours/ns, 51.332 timesteps/s, 443.506 katom-step/s
93.1% CPU use with 1 MPI tasks x 1 OpenMP threads

MPI task timing breakdown:
Section |  min time  |  avg time  |  max time  |%varavg| %total
---------------------------------------------------------------
Pair    | 7719.5     | 7719.5     | 7719.5     |   0.0 | 99.06
Neigh   | 3.5981     | 3.5981     | 3.5981     |   0.0 |  0.05
Comm    | 20.383     | 20.383     | 20.383     |   0.0 |  0.26
Output  | 0.011837   | 0.011837   | 0.011837   |   0.0 |  0.00
Modify  | 34.516     | 34.516     | 34.516     |   0.0 |  0.44
Other   |            | 14.49      |            |       |  0.19

Nlocal:           8640 ave        8640 max        8640 min
Histogram: 1 0 0 0 0 0 0 0 0 0
Nghost:           6703 ave        6703 max        6703 min
Histogram: 1 0 0 0 0 0 0 0 0 0
Neighs:              0 ave           0 max           0 min
Histogram: 1 0 0 0 0 0 0 0 0 0
FullNghs:       245086 ave      245086 max      245086 min
Histogram: 1 0 0 0 0 0 0 0 0 0

Total # of neighbors = 245086
Ave neighs/atom = 28.366435
Neighbor list builds = 284
Dangerous builds = 0
RESULT LEN=30 lz=162.8151546365488116 lx=32.563030927310478546 ly=32.563030927310478546 energy_total=419.07028396085900113 f_thermal=629.89965760467464406
Total wall time: 3:27:28
