LAMMPS (7 Feb 2024 - Update 1)
OMP_NUM_THREADS environment is not set. Defaulting to 1 thread. (src/comm.cpp:98)
  using 1 OpenMP thread(s) per MPI task
Lattice spacing in x,y,z = 5.431 5.431 5.431
Created orthogonal box = (0 0 0) to (32.586 32.586 108.62)
  1 by 1 by 1 MPI processor grid
Created 5760 atoms
  using lattice units in orthogonal box = (0 0 0) to (32.586 32.586 108.62)
  create_atoms CPU = 0.002 seconds
Reading tersoff potential file Si.tersoff with DATE: 2007-10-25
Neighbor list info ...
  update: every = 1 steps, delay = 0 steps, check = yes
  max neighbors/atom: 2000, page size: 100000
  master list distance cutoff = 5.2
  ghost atom cutoff = 5.2
  binsize = 2.6, bins = 13 13 42
  1 neighbor lists, perpetual/occasional/extra = 1 0 0
  (1) pair tersoff, perpetual
      attributes: full, newton on
      pair build: full/bin/atomonly
      stencil: full/bin/3d
      bin: standard
Setting up cg style minimization ...
  Unit style    : metal
  Current step  : 0
Per MPI rank memory allocation (min/avg/max) = 4.838 | 4.838 | 4.838 Mbytes
   Step          Temp          E_pair         E_mol          TotEng         Press     
         0   0             -26671.173      0             -26671.173      124.6582     
         1   0             -26671.173      0             -26671.173      124.6582     
Loop time of 0.0322075 on 1 procs for 1 steps with 5760 atoms

100.0% CPU use with 1 MPI tasks x 1 OpenMP threads

Minimization stats:
  Stopping criterion = energy tolerance
  Energy initial, next-to-last, final = 
     -26671.1734898587  -26671.1734898587  -26671.1734898587
  Force two-norm initial, final = 4.9899761e-12 4.9438619e-12
  Force max component initial, final = 1.2324863e-13 1.2567725e-13
  Final line search alpha, max atom move = 1 1.2567725e-13
  Iterations, force evaluations = 1 2

MPI task timing breakdown:
Section |  min time  |  avg time  |  max time  |%varavg| %total
---------------------------------------------------------------
Pair    | 0.031888   | 0.031888   | 0.031888   |   0.0 | 99.01
Neigh   | 0          | 0          | 0          |   0.0 |  0.00
Comm    | 6.4412e-05 | 6.4412e-05 | 6.4412e-05 |   0.0 |  0.20
Output  | 0          | 0          | 0          |   0.0 |  0.00
Modify  | 0          | 0          | 0          |   0.0 |  0.00
Other   |            | 0.0002556  |            |       |  0.79

Nlocal:           5760 ave        5760 max        5760 min
Histogram: 1 0 0 0 0 0 0 0 0 0
Nghost:           4709 ave        4709 max        4709 min
Histogram: 1 0 0 0 0 0 0 0 0 0
Neighs:              0 ave           0 max           0 min
Histogram: 1 0 0 0 0 0 0 0 0 0
FullNghs:       161280 ave      161280 max      161280 min
Histogram: 1 0 0 0 0 0 0 0 0 0

Total # of neighbors = 161280
Ave neighs/atom = 28
Neighbor list builds = 0
Dangerous builds = 0
Setting up Verlet run ...
  Unit style    : metal
  Current step  : 0
  Time step     : 0.0005
Per MPI rank memory allocation (min/avg/max) = 3.713 | 3.713 | 3.713 Mbytes
   Step          Temp          PotEng         Press          Volume           Lz          Density    
         0   300           -26671.173      2192.7993      115337.86      108.62         2.3290245    
      2000   283.2036      -26435.809      396.82266      114952.36      108.49885      2.3368352    
      4000   295.63447     -26444.383      29.101505      115130.13      108.55475      2.3332269    
      6000   301.80105     -26441.505      726.8113       115024.48      108.52153      2.3353699    
      8000   295.79308     -26443.968      592.76134      115047.41      108.52875      2.3349044    
     10000   300.54495     -26443.696     -158.15811      115154.17      108.56231      2.3327398    
     12000   299.33671     -26439.67      -112.08154      115100.02      108.54529      2.3338372    
     14000   299.92031     -26440.282     -1061.9864      115226.49      108.58503      2.3312757    
     16000   296.18506     -26440.434     -141.13828      115110.74      108.54866      2.3336199    
     18000   298.63141     -26440.044      358.1277       115075.92      108.53771      2.3343261    
     20000   308.88821     -26437.249      364.74057      115041.64      108.52693      2.3350216    
     22000   300.34223     -26444.043     -256.47459      115173.47      108.56837      2.3323489    
     24000   295.86863     -26435.322     -62.201315      115090.48      108.54229      2.3340307    
     26000   295.59096     -26444.687     -1051.735       115257.94      108.59491      2.3306395    
     28000   298.54087     -26442.603     -455.90331      115146.52      108.5599       2.3328949    
     30000   294.92795     -26441.707     -1073.0785      115239.39      108.58908      2.3310147    
     32000   296.85736     -26442.635      122.04918      115135.11      108.55631      2.333126     
     34000   292.71528     -26441.068      683.96466      114986.33      108.50954      2.3361448    
     36000   302.21438     -26445.716     -169.98378      115084.96      108.54055      2.3341426    
     38000   302.9192      -26442.108      193.37094      115063.35      108.53376      2.334581     
     40000   299.18623     -26435.519     -837.81352      115186.79      108.57256      2.3320791    
     42000   299.9994      -26444.335     -381.44694      115200.28      108.57679      2.3318061    
     44000   299.32367     -26442.802     -56.751264      115146.38      108.55986      2.3328976    
     46000   297.95888     -26442.126     -55.618553      115101.95      108.54589      2.3337981    
     48000   300.82291     -26443.603     -185.90826      115152.86      108.56189      2.3327664    
     50000   301.28082     -26440.58       223.22573      115096.86      108.54429      2.3339014    
     52000   305.01307     -26440.612      134.84468      115059.78      108.53264      2.3346534    
     54000   300.1629      -26442.641      511.28335      115053.12      108.53054      2.3347886    
     56000   298.1511      -26442.691      537.02675      115011.25      108.51737      2.3356385    
     58000   303.20721     -26445.489      217.6515       115097.05      108.54435      2.3338976    
     60000   300.88507     -26441.823      495.91071      115092.91      108.54305      2.3339814    
Loop time of 685.237 on 1 procs for 60000 steps with 5760 atoms

Performance: 3.783 ns/day, 6.345 hours/ns, 87.561 timesteps/s, 504.351 katom-step/s
100.0% CPU use with 1 MPI tasks x 1 OpenMP threads

MPI task timing breakdown:
Section |  min time  |  avg time  |  max time  |%varavg| %total
---------------------------------------------------------------
Pair    | 672.64     | 672.64     | 672.64     |   0.0 | 98.16
Neigh   | 0          | 0          | 0          |   0.0 |  0.00
Comm    | 1.3343     | 1.3343     | 1.3343     |   0.0 |  0.19
Output  | 0.0018664  | 0.0018664  | 0.0018664  |   0.0 |  0.00
Modify  | 10.098     | 10.098     | 10.098     |   0.0 |  1.47
Other   |            | 1.165      |            |       |  0.17

Nlocal:           5760 ave        5760 max        5760 min
Histogram: 1 0 0 0 0 0 0 0 0 0
Nghost:           4709 ave        4709 max        4709 min
Histogram: 1 0 0 0 0 0 0 0 0 0
Neighs:              0 ave           0 max           0 min
Histogram: 1 0 0 0 0 0 0 0 0 0
FullNghs:       161280 ave      161280 max      161280 min
Histogram: 1 0 0 0 0 0 0 0 0 0

Total # of neighbors = 161280
Ave neighs/atom = 28
Neighbor list builds = 0
Dangerous builds = 0
Setting up Verlet run ...
  Unit style    : metal
  Current step  : 60000
  Time step     : 0.0005
Per MPI rank memory allocation (min/avg/max) = 3.716 | 3.716 | 3.716 Mbytes
   Step          Temp          PotEng         Press          Volume           Lz          Density    
     60000   300.88507     -26441.823      495.91071      115092.91      108.54305      2.3339814    
     62000   299.43357     -26444.159      26.550732      115092.91      108.54305      2.3339814    
     64000   301.38642     -26438.829      302.46925      115092.91      108.54305      2.3339814    
     66000   297.75583     -26441.995     -74.47323       115092.91      108.54305      2.3339814    
     68000   299.51885     -26442.583      228.53876      115092.91      108.54305      2.3339814    
     70000   302.43524     -26443.645      66.485767      115092.91      108.54305      2.3339814    
     72000   298.0723      -26437.1        189.30052      115092.91      108.54305      2.3339814    
     74000   296.92834     -26440.456      189.9212       115092.91      108.54305      2.3339814    
     76000   291.70811     -26441.018     -184.16208      115092.91      108.54305      2.3339814    
     78000   296.22491     -26446.246      170.94444      115092.91      108.54305      2.3339814    
     80000   296.01855     -26444.948      135.52392      115092.91      108.54305      2.3339814    
     82000   305.08702     -26438.543     -59.090562      115092.91      108.54305      2.3339814    
     84000   301.30276     -26446.095      171.28033      115092.91      108.54305      2.3339814    
     86000   298.74882     -26439.889      10.83626       115092.91      108.54305      2.3339814    
     88000   299.45738     -26442.366      128.91583      115092.91      108.54305      2.3339814    
     90000   296.54118     -26438.527      2.7960199      115092.91      108.54305      2.3339814    
     92000   299.95417     -26442.565      190.61936      115092.91      108.54305      2.3339814    
     94000   295.94378     -26441.775     -35.996381      115092.91      108.54305      2.3339814    
     96000   300.03162     -26440.661      172.16468      115092.91      108.54305      2.3339814    
     98000   298.8696      -26441.347     -57.653503      115092.91      108.54305      2.3339814    
    100000   297.8522      -26441.614     -54.24845       115092.91      108.54305      2.3339814    
Loop time of 458.813 on 1 procs for 40000 steps with 5760 atoms

Performance: 3.766 ns/day, 6.372 hours/ns, 87.181 timesteps/s, 502.165 katom-step/s
100.0% CPU use with 1 MPI tasks x 1 OpenMP threads

MPI task timing breakdown:
Section |  min time  |  avg time  |  max time  |%varavg| %total
---------------------------------------------------------------
Pair    | 453.85     | 453.85     | 453.85     |   0.0 | 98.92
Neigh   | 0.08082    | 0.08082    | 0.08082    |   0.0 |  0.02
Comm    | 0.98297    | 0.98297    | 0.98297    |   0.0 |  0.21
Output  | 0.0011948  | 0.0011948  | 0.0011948  |   0.0 |  0.00
Modify  | 3.2196     | 3.2196     | 3.2196     |   0.0 |  0.70
Other   |            | 0.6834     |            |       |  0.15

Nlocal:           5760 ave        5760 max        5760 min
Histogram: 1 0 0 0 0 0 0 0 0 0
Nghost:           4774 ave        4774 max        4774 min
Histogram: 1 0 0 0 0 0 0 0 0 0
Neighs:              0 ave           0 max           0 min
Histogram: 1 0 0 0 0 0 0 0 0 0
FullNghs:       163326 ave      163326 max      163326 min
Histogram: 1 0 0 0 0 0 0 0 0 0

Total # of neighbors = 163326
Ave neighs/atom = 28.355208
Neighbor list builds = 11
Dangerous builds = 0
BOX_v4 lx=32.562915346956110341 ly=32.562915346956110341 lz=108.54305115652465474
WARNING: Fix thermal/conductivity comes before fix ave/chunk (src/fix_thermal_conductivity.cpp:118)
Setting up Verlet run ...
  Unit style    : metal
  Current step  : 0
  Time step     : 0.0005
Per MPI rank memory allocation (min/avg/max) = 3.966 | 3.966 | 3.966 Mbytes
   Step          Temp          PotEng         KinEng         TotEng         Press        f_thermal   
         0   297.8522      -26441.614      221.72391     -26219.89      -54.24845       0            
     10000   303.37697     -26445.729      225.8366      -26219.892     -75.753515      17.526271    
     20000   302.13486     -26444.802      224.91196     -26219.89       234.84261      34.433181    
     30000   298.66025     -26442.215      222.32543     -26219.89       311.10118      50.870251    
     40000   297.09678     -26441.051      221.16157     -26219.89       403.21132      67.084312    
     50000   299.17819     -26442.601      222.71099     -26219.89      -1.8870582      83.393258    
     60000   299.59612     -26442.913      223.0221      -26219.891     -94.140184      99.60986     
     70000   297.05824     -26441.023      221.13288     -26219.89       163.07788      115.56016    
     80000   296.70997     -26440.763      220.87362     -26219.889      159.64055      131.51366    
     90000   294.00627     -26438.75       218.86096     -26219.889     -17.622669      147.66423    
    100000   298.26287     -26441.92       222.02962     -26219.89      -242.74218      163.55143    
    110000   297.36302     -26441.249      221.35976     -26219.889     -232.18966      179.86587    
    120000   300.52491     -26443.603      223.7135      -26219.89       104.70893      196.56727    
    130000   299.82999     -26443.086      223.1962      -26219.889      418.14373      212.83983    
    140000   299.98805     -26443.204      223.31386     -26219.89       104.2639       229.09707    
    150000   301.35919     -26444.225      224.33454     -26219.89       231.04363      245.43572    
    160000   301.48139     -26444.315      224.42551     -26219.89       18.384304      262.21803    
    170000   297.71883     -26441.514      221.62463     -26219.889     -159.46708      278.31167    
    180000   296.71063     -26440.763      220.87412     -26219.889      7.3216321      295.42893    
    190000   297.67307     -26441.478      221.59057     -26219.888      52.097263      311.90365    
    200000   299.3545      -26442.731      222.84224     -26219.889      137.59814      328.3651     
    210000   298.5764      -26442.151      222.26301     -26219.888     -140.11894      344.99771    
    220000   299.72476     -26443.005      223.11786     -26219.887      143.06122      361.71734    
    230000   296.01338     -26440.242      220.35507     -26219.887     -257.29257      378.15963    
    240000   299.40468     -26442.766      222.87959     -26219.887      83.650481      395.01073    
    250000   297.22904     -26441.148      221.26002     -26219.888     -258.13638      411.65599    
    260000   299.75864     -26443.03       223.14309     -26219.887     -131.26212      427.90418    
    270000   300.33642     -26443.46       223.57319     -26219.887      135.22368      445.00128    
    280000   297.36328     -26441.246      221.35995     -26219.886     -107.92234      461.72618    
    290000   298.76741     -26442.291      222.4052      -26219.886      223.09736      478.62617    
    300000   300.24745     -26443.393      223.50696     -26219.886      17.08683       495.18396    
    310000   298.06451     -26441.767      221.88196     -26219.885     -30.74112       511.7157     
    320000   296.70233     -26440.753      220.86794     -26219.885      237.7571       528.3001     
    330000   299.2762      -26442.67       222.78395     -26219.886      229.70385      544.67462    
    340000   297.02647     -26440.994      221.10923     -26219.885      88.880502      561.15264    
    350000   298.29166     -26441.937      222.05105     -26219.886      67.01969       577.31148    
    360000   294.3325      -26438.988      219.10381     -26219.884      59.541038      593.57837    
    370000   294.67979     -26439.247      219.36234     -26219.885     -142.47921      609.06111    
    380000   293.01153     -26438.005      218.12047     -26219.885      18.816053      625.13873    
    390000   295.3067      -26439.714      219.82902     -26219.885      59.967751      641.23275    
    400000   300.66831     -26443.707      223.82025     -26219.887     -114.52627      657.1688     
Loop time of 4601.48 on 1 procs for 400000 steps with 5760 atoms

Performance: 3.755 ns/day, 6.391 hours/ns, 86.928 timesteps/s, 500.708 katom-step/s
100.0% CPU use with 1 MPI tasks x 1 OpenMP threads

MPI task timing breakdown:
Section |  min time  |  avg time  |  max time  |%varavg| %total
---------------------------------------------------------------
Pair    | 4564.6     | 4564.6     | 4564.6     |   0.0 | 99.20
Neigh   | 0.30426    | 0.30426    | 0.30426    |   0.0 |  0.01
Comm    | 9.7507     | 9.7507     | 9.7507     |   0.0 |  0.21
Output  | 0.0013409  | 0.0013409  | 0.0013409  |   0.0 |  0.00
Modify  | 19.623     | 19.623     | 19.623     |   0.0 |  0.43
Other   |            | 7.173      |            |       |  0.16

Nlocal:           5760 ave        5760 max        5760 min
Histogram: 1 0 0 0 0 0 0 0 0 0
Nghost:           4777 ave        4777 max        4777 min
Histogram: 1 0 0 0 0 0 0 0 0 0
Neighs:              0 ave           0 max           0 min
Histogram: 1 0 0 0 0 0 0 0 0 0
FullNghs:       163258 ave      163258 max      163258 min
Histogram: 1 0 0 0 0 0 0 0 0 0

Total # of neighbors = 163258
Ave neighs/atom = 28.343403
Neighbor list builds = 40
Dangerous builds = 0
WARNING: Fix thermal/conductivity comes before fix ave/chunk (src/fix_thermal_conductivity.cpp:118)
Setting up Verlet run ...
  Unit style    : metal
  Current step  : 400000
  Time step     : 0.0005
Per MPI rank memory allocation (min/avg/max) = 3.966 | 3.966 | 3.966 Mbytes
   Step          Temp          PotEng         KinEng         TotEng         Press        f_thermal   
    400000   300.66831     -26443.707      223.82025     -26219.887     -114.52627      657.1688     
    410000   299.20176     -26442.614      222.72854     -26219.885     -11.227647      673.54119    
    420000   295.98206     -26440.217      220.33176     -26219.885      31.360707      689.74166    
    430000   298.99176     -26442.457      222.57221     -26219.884      422.10607      706.08915    
    440000   298.50975     -26442.098      222.2134      -26219.885     -28.084281      722.43475    
    450000   300.10123     -26443.283      223.39811     -26219.885      127.92282      739.03868    
    460000   301.23935     -26444.131      224.24534     -26219.885     -254.93113      754.91676    
    470000   300.20729     -26443.361      223.47706     -26219.884      67.424246      770.52061    
    480000   296.07685     -26440.286      220.40233     -26219.884     -98.132347      787.01289    
    490000   299.65687     -26442.952      223.06732     -26219.885      48.944396      803.46278    
    500000   299.78727     -26443.049      223.1644      -26219.884      76.864278      820.30212    
    510000   295.1113      -26439.567      219.68356     -26219.884     -423.45634      836.57932    
    520000   301.85446     -26444.586      224.70323     -26219.883      155.80286      853.17346    
    530000   298.55582     -26442.13       222.24769     -26219.882     -45.806786      869.11816    
    540000   299.10698     -26442.54       222.65798     -26219.882      15.99215       885.68839    
    550000   299.01578     -26442.472      222.59009     -26219.882     -65.672977      902.66796    
    560000   299.32514     -26442.702      222.82038     -26219.882     -207.77461      919.3266     
    570000   298.98954     -26442.452      222.57056     -26219.882     -32.458576      935.8833     
    580000   298.47845     -26442.072      222.1901      -26219.882      134.81586      952.13673    
    590000   297.78021     -26441.552      221.67032     -26219.881     -58.371613      968.5103     
    600000   297.16941     -26441.097      221.21563     -26219.882     -164.82129      985.13898    
    610000   297.25163     -26441.158      221.27684     -26219.881     -70.389068      1001.3287    
    620000   297.98255     -26441.701      221.82095     -26219.88       56.427652      1018.0636    
    630000   298.51273     -26442.096      222.21562     -26219.881     -93.89416       1034.7455    
    640000   298.1294      -26441.81       221.93026     -26219.88      -35.02188       1051.8375    
    650000   298.05534     -26441.755      221.87513     -26219.88       121.37628      1068.035     
    660000   300.1108      -26443.286      223.40523     -26219.88       8.2839846      1084.8601    
    670000   298.76805     -26442.285      222.40568     -26219.88       129.81885      1101.2769    
    680000   297.49807     -26441.339      221.4603      -26219.879      2.7680545      1117.6643    
    690000   303.91161     -26446.116      226.23459     -26219.881      263.77826      1133.9444    
    700000   301.54619     -26444.353      224.47375     -26219.879      205.60682      1150.2507    
    710000   294.73775     -26439.283      219.40548     -26219.877     -45.508158      1166.6828    
    720000   300.74701     -26443.757      223.87884     -26219.879      63.076157      1182.786     
    730000   299.5663      -26442.879      222.9999      -26219.879     -229.95741      1199.4637    
    740000   300.46117     -26443.544      223.66605     -26219.878      39.837957      1216.1919    
    750000   298.2625      -26441.908      222.02934     -26219.879     -450.90652      1232.5036    
    760000   298.54323     -26442.117      222.23832     -26219.878     -2.8939955      1249.0594    
    770000   297.17894     -26441.101      221.22273     -26219.878      25.303531      1265.8757    
    780000   297.05301     -26441.007      221.12899     -26219.878     -48.672258      1282.7834    
    790000   298.2506      -26441.898      222.02049     -26219.877      87.466205      1299.1812    
    800000   296.6972      -26440.741      220.86412     -26219.877      305.80992      1315.9183    
    810000   297.18278     -26441.103      221.22559     -26219.878     -139.65698      1332.6862    
    820000   297.81966     -26441.577      221.69969     -26219.877     -13.295053      1349.0745    
    830000   297.16281     -26441.087      221.21072     -26219.877      169.85372      1365.2265    
    840000   296.84303     -26440.85       220.97268     -26219.877     -62.968631      1381.1285    
    850000   298.98623     -26442.444      222.56809     -26219.876      288.43073      1397.8269    
    860000   300.01845     -26443.214      223.33648     -26219.877      54.259589      1414.2964    
    870000   295.43662     -26439.802      219.92573     -26219.877     -106.76003      1431.0711    
    880000   301.22126     -26444.11       224.23187     -26219.879     -6.8707262      1447.6308    
    890000   297.51785     -26441.352      221.47502     -26219.877     -149.54684      1463.8303    
    900000   298.7828      -26442.294      222.41666     -26219.877     -49.690263      1480.3477    
    910000   297.14617     -26441.075      221.19833     -26219.876      187.15821      1497.1067    
    920000   298.23116     -26441.883      222.00601     -26219.877     -268.70229      1513.5231    
    930000   294.18329     -26438.868      218.99274     -26219.875     -96.49218       1529.7614    
    940000   300.95557     -26443.911      224.03409     -26219.877     -122.44958      1545.9358    
    950000   298.37606     -26441.989      222.11388     -26219.875      234.36619      1562.1601    
    960000   295.12851     -26439.572      219.69637     -26219.875     -401.06042      1578.641     
    970000   300.39127     -26443.49       223.61402     -26219.876     -99.810121      1595.1935    
    980000   305.24781     -26447.106      227.22927     -26219.877      84.856568      1610.8726    
    990000   296.82117     -26440.832      220.9564      -26219.876     -4.5439196      1627.7333    
   1000000   296.25546     -26440.411      220.53528     -26219.875     -188.25159      1643.6369    
   1010000   298.46476     -26442.055      222.1799      -26219.876      188.22752      1659.3082    
   1020000   298.53181     -26442.104      222.22982     -26219.874      146.51657      1675.5303    
   1030000   298.44956     -26442.043      222.16859     -26219.875      7.5276132      1692.4993    
   1040000   300.5558      -26443.611      223.7365      -26219.875     -1.6110065      1709.4783    
   1050000   298.22215     -26441.874      221.99931     -26219.875     -74.756322      1726.1585    
   1060000   296.81958     -26440.829      220.95522     -26219.874      235.89621      1741.8134    
   1070000   296.43971     -26440.546      220.67244     -26219.874      255.74145      1758.514     
   1080000   296.18005     -26440.353      220.47914     -26219.873      218.04546      1774.8067    
   1090000   297.56231     -26441.382      221.50812     -26219.874      182.17384      1791.3871    
   1100000   299.3162      -26442.687      222.81373     -26219.874      205.89253      1807.6002    
   1110000   302.29097     -26444.903      225.02817     -26219.875      251.79292      1824.286     
   1120000   298.89556     -26442.374      222.5006      -26219.874      182.48078      1839.941     
   1130000   296.4632      -26440.563      220.68992     -26219.873      285.26959      1856.4035    
   1140000   294.41457     -26439.038      219.16491     -26219.873     -399.97635      1872.521     
   1150000   295.08497     -26439.536      219.66396     -26219.872     -70.323844      1888.3666    
   1160000   295.7346      -26440.019      220.14755     -26219.872      131.18447      1904.6056    
   1170000   299.51976     -26442.839      222.96526     -26219.874     -96.68945       1921.0894    
   1180000   301.50049     -26444.314      224.43973     -26219.874     -126.75021      1937.1465    
   1190000   296.8601      -26440.858      220.98538     -26219.872     -42.206279      1953.2607    
   1200000   294.86331     -26439.371      219.49895     -26219.872      11.920078      1969.5071    
Loop time of 9194.48 on 1 procs for 800000 steps with 5760 atoms

Performance: 3.759 ns/day, 6.385 hours/ns, 87.009 timesteps/s, 501.170 katom-step/s
100.0% CPU use with 1 MPI tasks x 1 OpenMP threads

MPI task timing breakdown:
Section |  min time  |  avg time  |  max time  |%varavg| %total
---------------------------------------------------------------
Pair    | 9120.2     | 9120.2     | 9120.2     |   0.0 | 99.19
Neigh   | 1.0045     | 1.0045     | 1.0045     |   0.0 |  0.01
Comm    | 19.579     | 19.579     | 19.579     |   0.0 |  0.21
Output  | 0.002599   | 0.002599   | 0.002599   |   0.0 |  0.00
Modify  | 39.274     | 39.274     | 39.274     |   0.0 |  0.43
Other   |            | 14.42      |            |       |  0.16

Nlocal:           5760 ave        5760 max        5760 min
Histogram: 1 0 0 0 0 0 0 0 0 0
Nghost:           4767 ave        4767 max        4767 min
Histogram: 1 0 0 0 0 0 0 0 0 0
Neighs:              0 ave           0 max           0 min
Histogram: 1 0 0 0 0 0 0 0 0 0
FullNghs:       163670 ave      163670 max      163670 min
Histogram: 1 0 0 0 0 0 0 0 0 0

Total # of neighbors = 163670
Ave neighs/atom = 28.414931
Neighbor list builds = 133
Dangerous builds = 0
RESULT_v4 LEN=20 lz=108.54305115652465474 lx=32.562915346956110341 ly=32.562915346956110341 energy_total=1312.3383350431399776 f_thermal=1969.5071361638845246
Total wall time: 4:09:00
