LAMMPS (7 Feb 2024 - Update 1)
OMP_NUM_THREADS environment is not set. Defaulting to 1 thread. (src/comm.cpp:98)
  using 1 OpenMP thread(s) per MPI task
Lattice spacing in x,y,z = 5.431 5.431 5.431
Created orthogonal box = (0 0 0) to (32.586 32.586 162.93)
  1 by 1 by 1 MPI processor grid
Created 8640 atoms
  using lattice units in orthogonal box = (0 0 0) to (32.586 32.586 162.93)
  create_atoms CPU = 0.002 seconds
Reading tersoff potential file Si.tersoff with DATE: 2007-10-25
Neighbor list info ...
  update: every = 1 steps, delay = 0 steps, check = yes
  max neighbors/atom: 2000, page size: 100000
  master list distance cutoff = 5.2
  ghost atom cutoff = 5.2
  binsize = 2.6, bins = 13 13 63
  1 neighbor lists, perpetual/occasional/extra = 1 0 0
  (1) pair tersoff, perpetual
      attributes: full, newton on
      pair build: full/bin/atomonly
      stencil: full/bin/3d
      bin: standard
Setting up cg style minimization ...
  Unit style    : metal
  Current step  : 0
Per MPI rank memory allocation (min/avg/max) = 5.366 | 5.366 | 5.366 Mbytes
   Step          Temp          E_pair         E_mol          TotEng         Press     
         0   0             -40006.76       0             -40006.76       124.6582     
         1   0             -40006.76       0             -40006.76       124.6582     
Loop time of 0.0491321 on 1 procs for 1 steps with 8640 atoms

99.6% CPU use with 1 MPI tasks x 1 OpenMP threads

Minimization stats:
  Stopping criterion = energy tolerance
  Energy initial, next-to-last, final = 
     -40006.7602347694  -40006.7602347694  -40006.7602347694
  Force two-norm initial, final = 1.0197593e-11 1.0139555e-11
  Force max component initial, final = 2.3987756e-13 2.4249353e-13
  Final line search alpha, max atom move = 1 2.4249353e-13
  Iterations, force evaluations = 1 2

MPI task timing breakdown:
Section |  min time  |  avg time  |  max time  |%varavg| %total
---------------------------------------------------------------
Pair    | 0.048524   | 0.048524   | 0.048524   |   0.0 | 98.76
Neigh   | 0          | 0          | 0          |   0.0 |  0.00
Comm    | 0.00017221 | 0.00017221 | 0.00017221 |   0.0 |  0.35
Output  | 0          | 0          | 0          |   0.0 |  0.00
Modify  | 0          | 0          | 0          |   0.0 |  0.00
Other   |            | 0.0004358  |            |       |  0.89

Nlocal:           8640 ave        8640 max        8640 min
Histogram: 1 0 0 0 0 0 0 0 0 0
Nghost:           6639 ave        6639 max        6639 min
Histogram: 1 0 0 0 0 0 0 0 0 0
Neighs:              0 ave           0 max           0 min
Histogram: 1 0 0 0 0 0 0 0 0 0
FullNghs:       241920 ave      241920 max      241920 min
Histogram: 1 0 0 0 0 0 0 0 0 0

Total # of neighbors = 241920
Ave neighs/atom = 28
Neighbor list builds = 0
Dangerous builds = 0
Setting up Verlet run ...
  Unit style    : metal
  Current step  : 0
  Time step     : 0.0005
Per MPI rank memory allocation (min/avg/max) = 4.241 | 4.241 | 4.241 Mbytes
   Step          Temp          PotEng         Press          Volume           Lz          Density    
         0   300           -40006.76       2192.919       173006.8       162.93         2.3290245    
      2000   285.95585     -39654.172      375.02132      172410.18      162.7425       2.337084     
      4000   296.80452     -39662.826     -236.92396      172725.44      162.84163      2.3328183    
      6000   300.17708     -39664.832     -416.35002      172765.48      162.85421      2.3322777    
      8000   299.10311     -39666.102     -795.32336      172824.37      162.87271      2.331483     
     10000   302.00296     -39657.034     -420.53424      172701.69      162.83416      2.3331392    
     12000   300.98447     -39661.017     -163.31991      172650.6       162.81811      2.3338296    
     14000   304.87124     -39658.305     -188.15517      172643.68      162.81593      2.3339232    
     16000   298.41007     -39659.293      411.33314      172575.79      162.79459      2.3348412    
     18000   301.14571     -39662.941      653.72634      172533.49      162.78129      2.3354136    
     20000   301.85224     -39658.311      296.54091      172576.1       162.79468      2.3348371    
     22000   301.59729     -39664.351      1288.7419      172414.09      162.74373      2.337031     
     24000   300.277       -39664.888      219.47721      172622.6       162.8093       2.3342082    
     26000   300.8203      -39665.578     -350.50859      172700.05      162.83365      2.3331613    
     28000   298.37397     -39660.546     -207.98742      172666.85      162.82321      2.33361      
     30000   301.53218     -39659.493     -414.49344      172731.2       162.84344      2.3327405    
     32000   296.95981     -39660.315     -52.175701      172629.34      162.81142      2.3341169    
     34000   298.48611     -39661.824     -930.21098      172839.68      162.87752      2.3312765    
     36000   306.71201     -39662.056     -116.59667      172667.09      162.82329      2.3336066    
     38000   298.54607     -39660.252      546.45589      172553.09      162.78745      2.3351484    
     40000   302.80478     -39663.306      632.5359       172500.84      162.77102      2.3358558    
     42000   300.04765     -39662.704      540.00426      172559.89      162.78959      2.3350564    
     44000   302.94111     -39655.245      644.412        172524.18      162.77836      2.3355398    
     46000   301.59875     -39661.27       137.17187      172639.12      162.8145       2.3339848    
     48000   301.73069     -39663.865     -520.99251      172733.1       162.84404      2.3327149    
     50000   296.21763     -39664.463     -1174.0689      172863.31      162.88494      2.3309578    
     52000   300.61817     -39662.278     -177.23657      172651.15      162.81828      2.3338221    
     54000   294.63698     -39659.513      257.75187      172612.49      162.80613      2.3343448    
     56000   302.29412     -39659.164      172.01661      172644.7       162.81625      2.3339093    
     58000   301.01318     -39660.814      378.49432      172595.51      162.80079      2.3345745    
     60000   297.02387     -39665.578      745.59692      172531.89      162.78078      2.3354354    
Loop time of 1008.4 on 1 procs for 60000 steps with 8640 atoms

Performance: 2.570 ns/day, 9.337 hours/ns, 59.500 timesteps/s, 514.081 katom-step/s
100.0% CPU use with 1 MPI tasks x 1 OpenMP threads

MPI task timing breakdown:
Section |  min time  |  avg time  |  max time  |%varavg| %total
---------------------------------------------------------------
Pair    | 989.75     | 989.75     | 989.75     |   0.0 | 98.15
Neigh   | 0          | 0          | 0          |   0.0 |  0.00
Comm    | 1.8558     | 1.8558     | 1.8558     |   0.0 |  0.18
Output  | 0.0023134  | 0.0023134  | 0.0023134  |   0.0 |  0.00
Modify  | 14.946     | 14.946     | 14.946     |   0.0 |  1.48
Other   |            | 1.847      |            |       |  0.18

Nlocal:           8640 ave        8640 max        8640 min
Histogram: 1 0 0 0 0 0 0 0 0 0
Nghost:           6639 ave        6639 max        6639 min
Histogram: 1 0 0 0 0 0 0 0 0 0
Neighs:              0 ave           0 max           0 min
Histogram: 1 0 0 0 0 0 0 0 0 0
FullNghs:       241920 ave      241920 max      241920 min
Histogram: 1 0 0 0 0 0 0 0 0 0

Total # of neighbors = 241920
Ave neighs/atom = 28
Neighbor list builds = 0
Dangerous builds = 0
Setting up Verlet run ...
  Unit style    : metal
  Current step  : 60000
  Time step     : 0.0005
Per MPI rank memory allocation (min/avg/max) = 4.246 | 4.246 | 4.246 Mbytes
   Step          Temp          PotEng         Press          Volume           Lz          Density    
     60000   297.02387     -39665.578      745.59692      172531.89      162.78078      2.3354354    
     62000   298.27172     -39662.294      568.22961      172531.89      162.78078      2.3354354    
     64000   298.95269     -39667.022      881.84258      172531.89      162.78078      2.3354354    
     66000   300.06762     -39664.121      842.81669      172531.89      162.78078      2.3354354    
     68000   298.36247     -39661.78       511.54759      172531.89      162.78078      2.3354354    
     70000   304.63059     -39664.446      834.96293      172531.89      162.78078      2.3354354    
     72000   297.09312     -39660.153      746.5792       172531.89      162.78078      2.3354354    
     74000   296.63471     -39659.789      515.57635      172531.89      162.78078      2.3354354    
     76000   300.19789     -39657.719      441.50205      172531.89      162.78078      2.3354354    
     78000   303.45991     -39657.675      502.58351      172531.89      162.78078      2.3354354    
     80000   297.44778     -39660.937      390.84927      172531.89      162.78078      2.3354354    
     82000   300.6095      -39660.944      428.45234      172531.89      162.78078      2.3354354    
     84000   303.03916     -39661.647      459.07174      172531.89      162.78078      2.3354354    
     86000   301.84224     -39665.183      408.31833      172531.89      162.78078      2.3354354    
     88000   303.80484     -39659.24       467.71205      172531.89      162.78078      2.3354354    
     90000   302.701       -39658.539      314.03797      172531.89      162.78078      2.3354354    
     92000   298.39795     -39659.775      402.47015      172531.89      162.78078      2.3354354    
     94000   297.35432     -39667.5        347.6525       172531.89      162.78078      2.3354354    
     96000   294.14072     -39661.753      363.82789      172531.89      162.78078      2.3354354    
     98000   294.92771     -39660.032      601.78766      172531.89      162.78078      2.3354354    
    100000   304.54086     -39665.089      709.91736      172531.89      162.78078      2.3354354    
Loop time of 697.771 on 1 procs for 40000 steps with 8640 atoms

Performance: 2.476 ns/day, 9.691 hours/ns, 57.325 timesteps/s, 495.292 katom-step/s
100.0% CPU use with 1 MPI tasks x 1 OpenMP threads

MPI task timing breakdown:
Section |  min time  |  avg time  |  max time  |%varavg| %total
---------------------------------------------------------------
Pair    | 689.43     | 689.43     | 689.43     |   0.0 | 98.80
Neigh   | 0.30911    | 0.30911    | 0.30911    |   0.0 |  0.04
Comm    | 1.6972     | 1.6972     | 1.6972     |   0.0 |  0.24
Output  | 0.0016357  | 0.0016357  | 0.0016357  |   0.0 |  0.00
Modify  | 5.0822     | 5.0822     | 5.0822     |   0.0 |  0.73
Other   |            | 1.254      |            |       |  0.18

Nlocal:           8640 ave        8640 max        8640 min
Histogram: 1 0 0 0 0 0 0 0 0 0
Nghost:           6909 ave        6909 max        6909 min
Histogram: 1 0 0 0 0 0 0 0 0 0
Neighs:              0 ave           0 max           0 min
Histogram: 1 0 0 0 0 0 0 0 0 0
FullNghs:       245086 ave      245086 max      245086 min
Histogram: 1 0 0 0 0 0 0 0 0 0

Total # of neighbors = 245086
Ave neighs/atom = 28.366435
Neighbor list builds = 28
Dangerous builds = 0
BOX_v4 lx=32.556156204438238433 ly=32.556156204438238433 lz=162.78078102219652123
WARNING: Fix thermal/conductivity comes before fix ave/chunk (src/fix_thermal_conductivity.cpp:118)
Setting up Verlet run ...
  Unit style    : metal
  Current step  : 0
  Time step     : 0.0005
Per MPI rank memory allocation (min/avg/max) = 4.497 | 4.497 | 4.497 Mbytes
   Step          Temp          PotEng         KinEng         TotEng         Press        f_thermal   
         0   304.54086     -39665.089      340.0742      -39325.015      709.91736      0            
     10000   298.51128     -39658.354      333.3411      -39325.012      291.53901      17.986771    
     20000   298.94763     -39658.84       333.82836     -39325.012      355.18669      35.748121    
     30000   298.87537     -39658.76       333.74767     -39325.012      734.13829      52.511354    
     40000   297.98558     -39657.766      332.75405     -39325.012      488.17211      69.227551    
     50000   302.67303     -39663.002      337.98843     -39325.013      478.63081      86.019134    
     60000   303.50863     -39663.935      338.92153     -39325.013      428.97366      103.04599    
     70000   300.78768     -39660.896      335.8831      -39325.013      316.02049      119.78432    
     80000   300.5961      -39660.681      335.66917     -39325.012      616.15596      136.36958    
     90000   301.91595     -39662.156      337.14302     -39325.013      280.14346      153.66011    
    100000   300.95918     -39661.087      336.07462     -39325.012      404.27326      170.69764    
    110000   301.35165     -39661.524      336.51287     -39325.011      518.15526      187.68057    
    120000   302.93296     -39663.29       338.2787      -39325.012      628.49119      204.81062    
    130000   299.87755     -39659.878      334.86678     -39325.011      238.44027      221.86989    
    140000   299.72149     -39659.704      334.69251     -39325.011      253.20476      238.96274    
    150000   300.62774     -39660.715      335.7045      -39325.011      506.7291       256.20174    
    160000   302.29355     -39662.575      337.56467     -39325.011      693.12402      273.53814    
    170000   300.06862     -39660.09       335.08014     -39325.01       538.71812      291.11884    
    180000   297.14044     -39656.82       331.81031     -39325.009      516.69612      308.16587    
    190000   302.13874     -39662.403      337.3918      -39325.011      458.07091      326.09617    
    200000   300.82269     -39660.933      335.9222      -39325.011      341.63801      344.03303    
    210000   299.22303     -39659.147      334.13589     -39325.011      326.09116      361.37782    
    220000   299.39529     -39659.338      334.32825     -39325.009      389.32832      378.3594     
    230000   304.24753     -39664.757      339.74665     -39325.011      660.05461      395.70904    
    240000   294.83682     -39654.245      329.23791     -39325.007      639.01764      412.68934    
    250000   299.76409     -39659.749      334.74008     -39325.009      713.16487      429.27862    
    260000   298.09363     -39657.883      332.87471     -39325.008      419.99296      446.20676    
    270000   298.3343      -39658.152      333.14347     -39325.008      649.31313      464.12527    
    280000   297.93846     -39657.71       332.70144     -39325.008      908.1191       481.26119    
    290000   299.67145     -39659.646      334.63663     -39325.009      747.30393      497.71918    
    300000   302.14822     -39662.412      337.40239     -39325.009      797.3926       514.70216    
    310000   301.66835     -39661.876      336.86653     -39325.009      517.04206      531.85674    
    320000   297.85811     -39657.619      332.61172     -39325.007      450.71538      548.61703    
    330000   300.80712     -39660.912      335.90481     -39325.008      610.29836      564.94196    
    340000   301.25011     -39661.407      336.39948     -39325.007      589.18054      581.75294    
    350000   295.08425     -39654.52       329.5142      -39325.006      437.80087      598.90065    
    360000   298.55738     -39658.399      333.39258     -39325.006      490.11245      616.19317    
    370000   301.26425     -39661.422      336.41528     -39325.007      509.39881      633.41513    
    380000   296.8196      -39656.457      331.45204     -39325.005      312.07935      651.33792    
    390000   299.0858      -39658.988      333.98265     -39325.005      666.1674       668.35969    
    400000   301.5996      -39661.795      336.78975     -39325.005      710.47285      684.96886    
Loop time of 6999.64 on 1 procs for 400000 steps with 8640 atoms

Performance: 2.469 ns/day, 9.722 hours/ns, 57.146 timesteps/s, 493.739 katom-step/s
99.7% CPU use with 1 MPI tasks x 1 OpenMP threads

MPI task timing breakdown:
Section |  min time  |  avg time  |  max time  |%varavg| %total
---------------------------------------------------------------
Pair    | 6935.7     | 6935.7     | 6935.7     |   0.0 | 99.09
Neigh   | 2.4447     | 2.4447     | 2.4447     |   0.0 |  0.03
Comm    | 16.657     | 16.657     | 16.657     |   0.0 |  0.24
Output  | 0.0016461  | 0.0016461  | 0.0016461  |   0.0 |  0.00
Modify  | 31.51      | 31.51      | 31.51      |   0.0 |  0.45
Other   |            | 13.33      |            |       |  0.19

Nlocal:           8640 ave        8640 max        8640 min
Histogram: 1 0 0 0 0 0 0 0 0 0
Nghost:           6719 ave        6719 max        6719 min
Histogram: 1 0 0 0 0 0 0 0 0 0
Neighs:              0 ave           0 max           0 min
Histogram: 1 0 0 0 0 0 0 0 0 0
FullNghs:       245286 ave      245286 max      245286 min
Histogram: 1 0 0 0 0 0 0 0 0 0

Total # of neighbors = 245286
Ave neighs/atom = 28.389583
Neighbor list builds = 216
Dangerous builds = 0
WARNING: Fix thermal/conductivity comes before fix ave/chunk (src/fix_thermal_conductivity.cpp:118)
Setting up Verlet run ...
  Unit style    : metal
  Current step  : 400000
  Time step     : 0.0005
Per MPI rank memory allocation (min/avg/max) = 4.497 | 4.497 | 4.497 Mbytes
   Step          Temp          PotEng         KinEng         TotEng         Press        f_thermal   
    400000   301.5996      -39661.795      336.78975     -39325.005      710.47285      684.96886    
    410000   301.22475     -39661.376      336.37117     -39325.005      428.63193      701.75945    
    420000   299.89677     -39659.893      334.88825     -39325.005      295.01227      719.15845    
    430000   301.96253     -39662.199      337.19503     -39325.004      571.22887      736.24742    
    440000   301.83356     -39662.056      337.05101     -39325.005      574.9545       753.08709    
    450000   299.0038      -39658.895      333.89108     -39325.004      307.21996      770.09594    
    460000   299.35436     -39659.287      334.28255     -39325.004      484.77475      786.89994    
    470000   297.2086      -39656.889      331.88642     -39325.003      179.94558      803.64343    
    480000   304.45919     -39664.988      339.983       -39325.005      470.82894      820.84899    
    490000   303.06991     -39663.436      338.43162     -39325.004      454.0587       837.56108    
    500000   300.20903     -39660.24       335.23694     -39325.003      487.78249      854.58087    
    510000   301.96522     -39662.202      337.19804     -39325.004      571.00495      871.58157    
    520000   302.68741     -39663.008      338.00449     -39325.004      567.35628      888.47482    
    530000   300.43845     -39660.496      335.49313     -39325.003      541.18604      905.64083    
    540000   297.21195     -39656.892      331.89016     -39325.002      648.1346       922.5026     
    550000   300.85151     -39660.957      335.95438     -39325.003      572.63501      939.98792    
    560000   297.18278     -39656.859      331.85759     -39325.001      622.14423      957.13953    
    570000   298.80891     -39658.674      333.67345     -39325.001      387.29826      974.01746    
    580000   299.37067     -39659.301      334.30076     -39325          640.8314       990.84056    
    590000   298.70698     -39658.56       333.55963     -39325.001      423.70731      1007.4763    
    600000   300.65452     -39660.735      335.73441     -39325.001      565.29984      1024.2731    
    610000   301.98536     -39662.223      337.22053     -39325.002      480.33065      1041.0631    
    620000   300.28989     -39660.329      335.32723     -39325.002      288.83218      1057.7575    
    630000   300.85227     -39660.957      335.95523     -39325.001      107.65396      1075.6126    
    640000   299.41727     -39659.353      334.3528      -39325          57.663536      1093.1492    
    650000   299.3381      -39659.264      334.26439     -39324.999      526.46483      1110.7271    
    660000   299.00583     -39658.892      333.89335     -39324.999      646.63504      1127.6729    
    670000   296.2781      -39655.846      330.84736     -39324.998      495.77181      1145.1411    
    680000   305.54578     -39666.197      341.19637     -39325.001      633.43503      1162.3368    
    690000   299.76023     -39659.733      334.73577     -39324.997      816.10408      1179.1829    
    700000   300.49681     -39660.557      335.5583      -39324.999      481.61707      1196.5994    
    710000   298.96744     -39658.848      333.85048     -39324.997      674.42715      1212.7825    
    720000   306.27214     -39667.008      342.00748     -39325          655.99895      1229.9078    
    730000   299.40949     -39659.342      334.34411     -39324.998      393.07889      1246.3469    
    740000   298.54397     -39658.375      333.3776      -39324.998      317.66558      1263.392     
    750000   297.7846      -39657.527      332.52962     -39324.998      264.07515      1279.907     
    760000   301.72454     -39661.927      336.92928     -39324.997      712.5299       1297.4438    
    770000   302.56214     -39662.863      337.86461     -39324.998      360.65069      1314.2056    
    780000   302.80135     -39663.128      338.13173     -39324.996      768.06245      1331.4851    
    790000   301.99312     -39662.227      337.22919     -39324.998      432.70647      1348.8278    
    800000   301.7604      -39661.966      336.96932     -39324.997      428.0344       1365.7201    
    810000   305.86305     -39666.549      341.55066     -39324.998      646.43318      1382.8775    
    820000   302.08424     -39662.328      337.33094     -39324.997      564.14386      1400.431     
    830000   299.38082     -39659.307      334.31209     -39324.995      518.57055      1416.9222    
    840000   298.79115     -39658.649      333.65362     -39324.995      363.74862      1434.1288    
    850000   299.3757      -39659.301      334.30638     -39324.995      631.66355      1450.9826    
    860000   298.67508     -39658.518      333.52401     -39324.994      752.50337      1467.7678    
    870000   303.07077     -39663.429      338.43258     -39324.996      533.11288      1484.806     
    880000   298.45027     -39658.266      333.27296     -39324.993      486.73048      1501.939     
    890000   296.4654      -39656.049      331.0565      -39324.992      351.8216       1519.6092    
    900000   300.22464     -39660.248      335.25437     -39324.994      448.3862       1536.6882    
    910000   301.81654     -39662.027      337.03201     -39324.995      616.09294      1553.5017    
    920000   300.92431     -39661.029      336.03567     -39324.993      676.8025       1570.9034    
    930000   300.03743     -39660.039      335.04532     -39324.994      399.63887      1587.8191    
    940000   300.42731     -39660.474      335.48069     -39324.993      680.32219      1604.8869    
    950000   301.05396     -39661.173      336.18045     -39324.993      676.28685      1622.3352    
    960000   300.76961     -39660.857      335.86293     -39324.994      470.65013      1639.2597    
    970000   302.21201     -39662.467      337.47362     -39324.993      702.58161      1656.2623    
    980000   299.03081     -39658.913      333.92125     -39324.992      318.80657      1673.1157    
    990000   298.2804      -39658.075      333.08327     -39324.991      395.34063      1690.1202    
   1000000   298.74411     -39658.592      333.6011      -39324.991      552.83606      1708.0783    
   1010000   300.14509     -39660.157      335.16553     -39324.992      718.48074      1725.2053    
   1020000   300.94281     -39661.048      336.05633     -39324.992      445.43299      1742.5455    
   1030000   299.49415     -39659.429      334.43865     -39324.991      420.80286      1760.1375    
   1040000   298.46581     -39658.282      333.29032     -39324.991      440.32168      1776.973     
   1050000   302.8483      -39663.175      338.18415     -39324.991      831.93936      1793.4855    
   1060000   301.13759     -39661.264      336.27384     -39324.991      739.3325       1810.4393    
   1070000   300.10628     -39660.114      335.12219     -39324.991      522.87832      1827.2831    
   1080000   297.80094     -39657.536      332.54788     -39324.988      476.46223      1844.2929    
   1090000   298.82241     -39658.678      333.68853     -39324.99       442.5589       1861.1209    
   1100000   300.2261      -39660.246      335.256       -39324.99       468.23791      1878.7083    
   1110000   302.99974     -39663.343      338.35326     -39324.99       551.36809      1895.5545    
   1120000   300.72864     -39660.806      335.81718     -39324.989      483.59499      1913.3743    
   1130000   302.63996     -39662.941      337.9515      -39324.99       677.58591      1930.7135    
   1140000   298.65243     -39658.488      333.49871     -39324.989      316.32571      1947.6243    
   1150000   300.19338     -39660.207      335.21946     -39324.988      674.82253      1964.5739    
   1160000   299.56451     -39659.505      334.51722     -39324.988      148.27629      1981.7522    
   1170000   301.36637     -39661.517      336.52931     -39324.988      537.34347      1999.2289    
   1180000   300.55915     -39660.615      335.62791     -39324.988      446.64329      2016.2075    
   1190000   299.86556     -39659.84       334.85339     -39324.986      456.15932      2033.1703    
   1200000   302.74131     -39663.052      338.06468     -39324.987      503.7297       2049.7637    
Loop time of 14847 on 1 procs for 800000 steps with 8640 atoms

Performance: 2.328 ns/day, 10.310 hours/ns, 53.883 timesteps/s, 465.549 katom-step/s
98.0% CPU use with 1 MPI tasks x 1 OpenMP threads

MPI task timing breakdown:
Section |  min time  |  avg time  |  max time  |%varavg| %total
---------------------------------------------------------------
Pair    | 14704      | 14704      | 14704      |   0.0 | 99.04
Neigh   | 4.85       | 4.85       | 4.85       |   0.0 |  0.03
Comm    | 40.915     | 40.915     | 40.915     |   0.0 |  0.28
Output  | 0.02636    | 0.02636    | 0.02636    |   0.0 |  0.00
Modify  | 67.809     | 67.809     | 67.809     |   0.0 |  0.46
Other   |            | 29.65      |            |       |  0.20

Nlocal:           8640 ave        8640 max        8640 min
Histogram: 1 0 0 0 0 0 0 0 0 0
Nghost:           6767 ave        6767 max        6767 min
Histogram: 1 0 0 0 0 0 0 0 0 0
Neighs:              0 ave           0 max           0 min
Histogram: 1 0 0 0 0 0 0 0 0 0
FullNghs:       245376 ave      245376 max      245376 min
Histogram: 1 0 0 0 0 0 0 0 0 0

Total # of neighbors = 245376
Ave neighs/atom = 28.4
Neighbor list builds = 412
Dangerous builds = 0
RESULT_v4 LEN=30 lz=162.78078102219652123 lx=32.556156204438238433 ly=32.556156204438238433 energy_total=1364.7948476974499954 f_thermal=2049.7637073180403604
Total wall time: 6:32:33
