LAMMPS (7 Feb 2024 - Update 1)
OMP_NUM_THREADS environment is not set. Defaulting to 1 thread. (src/comm.cpp:98)
  using 1 OpenMP thread(s) per MPI task
Lattice spacing in x,y,z = 5.431 5.431 5.431
Created orthogonal box = (0 0 0) to (32.586 32.586 217.24)
  1 by 1 by 1 MPI processor grid
Created 11520 atoms
  using lattice units in orthogonal box = (0 0 0) to (32.586 32.586 217.24)
  create_atoms CPU = 0.004 seconds
Reading tersoff potential file Si.tersoff with DATE: 2007-10-25
Neighbor list info ...
  update: every = 1 steps, delay = 0 steps, check = yes
  max neighbors/atom: 2000, page size: 100000
  master list distance cutoff = 5.2
  ghost atom cutoff = 5.2
  binsize = 2.6, bins = 13 13 84
  1 neighbor lists, perpetual/occasional/extra = 1 0 0
  (1) pair tersoff, perpetual
      attributes: full, newton on
      pair build: full/bin/atomonly
      stencil: full/bin/3d
      bin: standard
Setting up cg style minimization ...
  Unit style    : metal
  Current step  : 0
Per MPI rank memory allocation (min/avg/max) = 9.271 | 9.271 | 9.271 Mbytes
   Step          Temp          E_pair         E_mol          TotEng         Press     
         0   0             -53342.347      0             -53342.347      124.6582     
         1   0             -53342.347      0             -53342.347      124.6582     
Loop time of 0.0771732 on 1 procs for 1 steps with 11520 atoms

92.9% CPU use with 1 MPI tasks x 1 OpenMP threads

Minimization stats:
  Stopping criterion = energy tolerance
  Energy initial, next-to-last, final = 
     -53342.3469796702  -53342.3469796702  -53342.3469796702
  Force two-norm initial, final = 1.4558086e-11 1.450371e-11
  Force max component initial, final = 2.3987756e-13 2.4249353e-13
  Final line search alpha, max atom move = 1 2.4249353e-13
  Iterations, force evaluations = 1 2

MPI task timing breakdown:
Section |  min time  |  avg time  |  max time  |%varavg| %total
---------------------------------------------------------------
Pair    | 0.075991   | 0.075991   | 0.075991   |   0.0 | 98.47
Neigh   | 0          | 0          | 0          |   0.0 |  0.00
Comm    | 0.00021224 | 0.00021224 | 0.00021224 |   0.0 |  0.28
Output  | 0          | 0          | 0          |   0.0 |  0.00
Modify  | 0          | 0          | 0          |   0.0 |  0.00
Other   |            | 0.0009703  |            |       |  1.26

Nlocal:          11520 ave       11520 max       11520 min
Histogram: 1 0 0 0 0 0 0 0 0 0
Nghost:           8569 ave        8569 max        8569 min
Histogram: 1 0 0 0 0 0 0 0 0 0
Neighs:              0 ave           0 max           0 min
Histogram: 1 0 0 0 0 0 0 0 0 0
FullNghs:       322560 ave      322560 max      322560 min
Histogram: 1 0 0 0 0 0 0 0 0 0

Total # of neighbors = 322560
Ave neighs/atom = 28
Neighbor list builds = 0
Dangerous builds = 0
Setting up Verlet run ...
  Unit style    : metal
  Current step  : 0
  Time step     : 0.001
Per MPI rank memory allocation (min/avg/max) = 7.021 | 7.021 | 7.021 Mbytes
   Step          Temp          PotEng         Press          Volume           Lz          Density    
         0   300           -53342.347      2192.9789      230675.73      217.24         2.3290245    
      1000   293.01693     -52851.839      67.079201      230120.83      217.06567      2.3346406    
      2000   295.10643     -52884.509      462.56953      230157.29      217.07713      2.3342708    
      3000   298.99896     -52869.153      97.931519      230242.3       217.10385      2.3334089    
      4000   297.32368     -52886.542     -365.87313      230442.47      217.16675      2.3313821    
      5000   300.15788     -52876.391      92.501921      230249.25      217.10604      2.3333385    
      6000   301.3906      -52882.868      798.69479      230038.11      217.03966      2.3354801    
      7000   296.79044     -52878.255     -358.61294      230328.72      217.13101      2.3325334    
      8000   300.80236     -52886.931      102.12095      230309.51      217.12498      2.332728     
      9000   305.21667     -52882.159      533.40856      230164.74      217.07947      2.3341952    
     10000   298.07959     -52880.843      309.72386      230151.04      217.07517      2.3343341    
     11000   301.01244     -52879.793      31.474191      230239.16      217.10287      2.3334408    
     12000   300.1801      -52882.743      360.61097      230266.19      217.11136      2.3331668    
     13000   299.8926      -52878.827     -175.82719      230319.31      217.12806      2.3326287    
     14000   299.77492     -52884.005     -578.80457      230432.8       217.16371      2.3314799    
     15000   299.69991     -52884.674      282.98786      230215.94      217.09557      2.3336761    
     16000   301.36922     -52884.67      -14.068269      230274.05      217.11383      2.3330871    
     17000   299.0913      -52882.466     -348.73837      230345.8       217.13638      2.3323605    
     18000   300.63817     -52877.142     -70.02576       230251.62      217.10678      2.3333144    
     19000   296.14312     -52880.444     -249.54616      230254.14      217.10757      2.3332889    
     20000   304.09502     -52885.354      54.196345      230237.3       217.10228      2.3334596    
     21000   301.86578     -52877.954      408.07739      230148.88      217.07449      2.3343561    
     22000   298.5284      -52879.86      -661.41214      230362.52      217.14163      2.3321911    
     23000   298.0123      -52882.094      79.809019      230167.71      217.08041      2.3341651    
     24000   302.95075     -52882.808     -379.00768      230327.58      217.13066      2.3325449    
     25000   301.15189     -52884.099     -1.1519271      230243.78      217.10432      2.333394     
     26000   297.47607     -52878.769      17.704256      230238.2       217.10257      2.3334504    
     27000   301.27699     -52876.273     -31.494184      230205.86      217.0924       2.3337783    
     28000   298.12205     -52881.172      707.22848      230061.82      217.04711      2.3352394    
     29000   302.36379     -52881.996      335.66962      230171.83      217.0817       2.3341234    
     30000   300.63517     -52887.971     -5.013261       230230.75      217.10022      2.3335259    
Loop time of 744.353 on 1 procs for 30000 steps with 11520 atoms

Performance: 3.482 ns/day, 6.892 hours/ns, 40.303 timesteps/s, 464.296 katom-step/s
92.9% CPU use with 1 MPI tasks x 1 OpenMP threads

MPI task timing breakdown:
Section |  min time  |  avg time  |  max time  |%varavg| %total
---------------------------------------------------------------
Pair    | 730.74     | 730.74     | 730.74     |   0.0 | 98.17
Neigh   | 0          | 0          | 0          |   0.0 |  0.00
Comm    | 1.4062     | 1.4062     | 1.4062     |   0.0 |  0.19
Output  | 0.0032489  | 0.0032489  | 0.0032489  |   0.0 |  0.00
Modify  | 10.9       | 10.9       | 10.9       |   0.0 |  1.46
Other   |            | 1.302      |            |       |  0.17

Nlocal:          11520 ave       11520 max       11520 min
Histogram: 1 0 0 0 0 0 0 0 0 0
Nghost:           8569 ave        8569 max        8569 min
Histogram: 1 0 0 0 0 0 0 0 0 0
Neighs:              0 ave           0 max           0 min
Histogram: 1 0 0 0 0 0 0 0 0 0
FullNghs:       322560 ave      322560 max      322560 min
Histogram: 1 0 0 0 0 0 0 0 0 0

Total # of neighbors = 322560
Ave neighs/atom = 28
Neighbor list builds = 0
Dangerous builds = 0
Setting up Verlet run ...
  Unit style    : metal
  Current step  : 30000
  Time step     : 0.001
Per MPI rank memory allocation (min/avg/max) = 7.026 | 7.026 | 7.026 Mbytes
   Step          Temp          PotEng         Press          Volume           Lz          Density    
     30000   300.63517     -52887.971     -5.013261       230230.75      217.10022      2.3335259    
     31000   298.2241      -52873.734     -21.892094      230230.75      217.10022      2.3335259    
     32000   299.48614     -52884.73       91.102343      230230.75      217.10022      2.3335259    
     33000   298.79032     -52882.08      -8.74654        230230.75      217.10022      2.3335259    
     34000   300.74874     -52875.538     -96.567206      230230.75      217.10022      2.3335259    
     35000   301.03411     -52880.926     -94.628409      230230.75      217.10022      2.3335259    
     36000   295.95462     -52876.044     -374.41102      230230.75      217.10022      2.3335259    
     37000   295.80851     -52882.562     -218.70031      230230.75      217.10022      2.3335259    
     38000   299.10811     -52876.879     -238.83139      230230.75      217.10022      2.3335259    
     39000   300.14443     -52885.191     -163.92397      230230.75      217.10022      2.3335259    
     40000   304.53446     -52884.867     -158.12951      230230.75      217.10022      2.3335259    
     41000   293.79019     -52884.78      -237.29202      230230.75      217.10022      2.3335259    
     42000   300.75608     -52877.869     -166.99765      230230.75      217.10022      2.3335259    
     43000   300.97791     -52882.687     -134.27588      230230.75      217.10022      2.3335259    
     44000   299.05448     -52880.567     -306.2471       230230.75      217.10022      2.3335259    
     45000   301.79632     -52881.018     -285.81927      230230.75      217.10022      2.3335259    
     46000   303.36311     -52881.228     -248.16295      230230.75      217.10022      2.3335259    
     47000   299.9201      -52884.841      75.030491      230230.75      217.10022      2.3335259    
     48000   297.74        -52882.803     -197.16736      230230.75      217.10022      2.3335259    
     49000   301.4036      -52888.987     -118.03806      230230.75      217.10022      2.3335259    
     50000   297.86699     -52881.811     -370.95009      230230.75      217.10022      2.3335259    
Loop time of 515.97 on 1 procs for 20000 steps with 11520 atoms

Performance: 3.349 ns/day, 7.166 hours/ns, 38.762 timesteps/s, 446.538 katom-step/s
92.8% CPU use with 1 MPI tasks x 1 OpenMP threads

MPI task timing breakdown:
Section |  min time  |  avg time  |  max time  |%varavg| %total
---------------------------------------------------------------
Pair    | 509.6      | 509.6      | 509.6      |   0.0 | 98.77
Neigh   | 0.24343    | 0.24343    | 0.24343    |   0.0 |  0.05
Comm    | 1.4313     | 1.4313     | 1.4313     |   0.0 |  0.28
Output  | 0.0020489  | 0.0020489  | 0.0020489  |   0.0 |  0.00
Modify  | 3.785      | 3.785      | 3.785      |   0.0 |  0.73
Other   |            | 0.9061     |            |       |  0.18

Nlocal:          11520 ave       11520 max       11520 min
Histogram: 1 0 0 0 0 0 0 0 0 0
Nghost:           8773 ave        8773 max        8773 min
Histogram: 1 0 0 0 0 0 0 0 0 0
Neighs:              0 ave           0 max           0 min
Histogram: 1 0 0 0 0 0 0 0 0 0
FullNghs:       326988 ave      326988 max      326988 min
Histogram: 1 0 0 0 0 0 0 0 0 0

Total # of neighbors = 326988
Ave neighs/atom = 28.384375
Neighbor list builds = 15
Dangerous builds = 0
BOX lx=32.565033652774310724 ly=32.565033652774310724 lz=217.10022435183415723
WARNING: Fix thermal/conductivity comes before fix ave/chunk (src/fix_thermal_conductivity.cpp:118)
Setting up Verlet run ...
  Unit style    : metal
  Current step  : 0
  Time step     : 0.001
Per MPI rank memory allocation (min/avg/max) = 7.526 | 7.526 | 7.526 Mbytes
   Step          Temp          PotEng         KinEng         TotEng         Press        f_thermal   
         0   297.86699     -52881.811      443.50834     -52438.302     -370.95009      0            
     10000   296.25569     -52879.408      441.1092      -52438.299     -101.94342      11.156966    
     20000   298.11947     -52882.188      443.88428     -52438.303     -367.86959      22.491724    
     30000   300.17906     -52885.257      446.95089     -52438.306     -452.83514      33.372211    
     40000   299.01333     -52883.518      445.21518     -52438.303     -353.26823      44.267017    
     50000   299.54495     -52884.309      446.00674     -52438.302     -334.41078      54.97055     
     60000   297.45142     -52881.179      442.88958     -52438.289     -172.27208      65.666553    
     70000   298.40651     -52882.616      444.31167     -52438.304     -306.16065      76.715994    
     80000   299.45748     -52884.175      445.8765      -52438.298     -182.04439      87.591112    
     90000   300.37416     -52885.543      447.24139     -52438.302     -287.12736      98.134508    
    100000   302.38449     -52888.537      450.23466     -52438.303     -123.91467      109.25653    
    110000   301.1997      -52886.773      448.47057     -52438.302     -214.21258      120.01346    
    120000   297.84896     -52881.776      443.48149     -52438.295     -234.7243       130.65476    
    130000   298.66863     -52882.998      444.70194     -52438.296     -194.97123      141.45273    
    140000   297.85703     -52881.791      443.49352     -52438.297     -261.34493      152.17298    
    150000   296.31597     -52879.491      441.19896     -52438.292     -374.43105      163.04517    
    160000   299.38522     -52884.07       445.76891     -52438.301     -378.25817      173.78039    
    170000   294.46825     -52876.739      438.4478      -52438.291     -150.71338      184.40892    
    180000   299.01234     -52883.511      445.21371     -52438.297     -216.57358      195.45331    
    190000   295.55132     -52878.351      440.06043     -52438.29       8.8634296      206.2612     
    200000   297.35975     -52881.052      442.75309     -52438.298     -152.01092      217.3312     
Loop time of 5860.28 on 1 procs for 200000 steps with 11520 atoms

Performance: 2.949 ns/day, 8.139 hours/ns, 34.128 timesteps/s, 393.155 katom-step/s
92.6% CPU use with 1 MPI tasks x 1 OpenMP threads

MPI task timing breakdown:
Section |  min time  |  avg time  |  max time  |%varavg| %total
---------------------------------------------------------------
Pair    | 5798.2     | 5798.2     | 5798.2     |   0.0 | 98.94
Neigh   | 5.7034     | 5.7034     | 5.7034     |   0.0 |  0.10
Comm    | 17.814     | 17.814     | 17.814     |   0.0 |  0.30
Output  | 0.0011911  | 0.0011911  | 0.0011911  |   0.0 |  0.00
Modify  | 27.01      | 27.01      | 27.01      |   0.0 |  0.46
Other   |            | 11.59      |            |       |  0.20

Nlocal:          11520 ave       11520 max       11520 min
Histogram: 1 0 0 0 0 0 0 0 0 0
Nghost:           8710 ave        8710 max        8710 min
Histogram: 1 0 0 0 0 0 0 0 0 0
Neighs:              0 ave           0 max           0 min
Histogram: 1 0 0 0 0 0 0 0 0 0
FullNghs:       326828 ave      326828 max      326828 min
Histogram: 1 0 0 0 0 0 0 0 0 0

Total # of neighbors = 326828
Ave neighs/atom = 28.370486
Neighbor list builds = 310
Dangerous builds = 0
WARNING: Fix thermal/conductivity comes before fix ave/chunk (src/fix_thermal_conductivity.cpp:118)
Setting up Verlet run ...
  Unit style    : metal
  Current step  : 200000
  Time step     : 0.001
Per MPI rank memory allocation (min/avg/max) = 7.527 | 7.527 | 7.527 Mbytes
   Step          Temp          PotEng         KinEng         TotEng         Press        f_thermal   
    200000   297.35975     -52881.052      442.75309     -52438.298     -152.01092      217.3312     
    210000   301.66694     -52887.469      449.16627     -52438.303      15.181378      227.82432    
    220000   296.99669     -52880.502      442.21251     -52438.29      -188.87076      239.11045    
    230000   296.38604     -52879.592      441.30328     -52438.289     -111.53051      249.48308    
    240000   298.16064     -52882.242      443.94557     -52438.296     -149.87117      260.38886    
    250000   299.88294     -52884.814      446.50999     -52438.304     -529.00898      270.67706    
    260000   299.53604     -52884.289      445.99347     -52438.295     -90.52719       281.34496    
    270000   298.77692     -52883.163      444.86318     -52438.3       -213.42052      292.16064    
    280000   299.46779     -52884.188      445.89185     -52438.296     -17.286242      303.08717    
    290000   299.62764     -52884.428      446.12985     -52438.298     -40.691567      313.57667    
    300000   298.22638     -52882.34       444.04346     -52438.296     -67.572715      324.51039    
    310000   297.0803      -52880.629      442.337       -52438.292     -73.027638      335.81105    
    320000   299.17614     -52883.753      445.45759     -52438.296     -234.08508      346.67516    
    330000   298.846       -52883.263      444.96603     -52438.297     -267.82982      357.42403    
    340000   299.51076     -52884.25       445.95583     -52438.294     -182.3402       368.25867    
    350000   298.75155     -52883.12       444.8254      -52438.295     -275.95737      378.88815    
    360000   295.48007     -52878.247      439.95434     -52438.292     -413.88425      389.94373    
    370000   298.61255     -52882.909      444.61844     -52438.29      -170.46176      400.46078    
    380000   302.84349     -52889.225      450.9181      -52438.307     -279.73209      411.30268    
    390000   295.94515     -52878.935      440.64682     -52438.288     -344.73003      422.53975    
    400000   295.15402     -52877.757      439.46887     -52438.288     -286.86034      433.46354    
    410000   298.72093     -52883.073      444.77981     -52438.293     -158.00606      444.45305    
    420000   297.72959     -52881.599      443.30376     -52438.295     -181.12108      455.177      
    430000   296.62396     -52879.947      441.65753     -52438.289     -241.14517      465.93907    
    440000   296.03326     -52879.067      440.77802     -52438.289     -352.46048      476.94297    
    450000   299.49348     -52884.223      445.9301      -52438.293      41.145083      488.00403    
    460000   299.1424      -52883.703      445.40737     -52438.296     -207.12385      499.02078    
    470000   298.46689     -52882.696      444.40157     -52438.294     -168.86048      510.1501     
    480000   300.14528     -52885.199      446.9006      -52438.298     -279.96633      521.30146    
    490000   297.5016      -52881.257      442.96429     -52438.293     -274.7331       532.26193    
    500000   299.35482     -52884.02       445.72365     -52438.296     -275.27287      543.17522    
    510000   300.6273      -52885.915      447.6183      -52438.297     -177.58929      554.32162    
    520000   298.44362     -52882.66       444.36692     -52438.293     -442.6845       565.10259    
    530000   300.78366     -52886.152      447.85111     -52438.3       -222.89443      575.74059    
    540000   301.22226     -52886.8        448.50417     -52438.296     -46.098197      586.4862     
    550000   296.51349     -52879.784      441.49305     -52438.291     -365.4317       596.97789    
    560000   299.56166     -52884.326      446.03162     -52438.295     -185.87384      607.67112    
    570000   296.9033      -52880.359      442.07346     -52438.286     -267.70722      618.13169    
    580000   301.72436     -52887.55       449.25176     -52438.299     -182.19575      628.7836     
    590000   298.90631     -52883.349      445.05584     -52438.293     -113.61152      639.66228    
    600000   296.02822     -52879.06       440.77051     -52438.29      -442.13061      650.26232    
Loop time of 10578 on 1 procs for 400000 steps with 11520 atoms

Performance: 3.267 ns/day, 7.346 hours/ns, 37.814 timesteps/s, 435.620 katom-step/s
92.5% CPU use with 1 MPI tasks x 1 OpenMP threads

MPI task timing breakdown:
Section |  min time  |  avg time  |  max time  |%varavg| %total
---------------------------------------------------------------
Pair    | 10466      | 10466      | 10466      |   0.0 | 98.94
Neigh   | 7.4856     | 7.4856     | 7.4856     |   0.0 |  0.07
Comm    | 32.759     | 32.759     | 32.759     |   0.0 |  0.31
Output  | 0.0030713  | 0.0030713  | 0.0030713  |   0.0 |  0.00
Modify  | 49.837     | 49.837     | 49.837     |   0.0 |  0.47
Other   |            | 21.68      |            |       |  0.20

Nlocal:          11520 ave       11520 max       11520 min
Histogram: 1 0 0 0 0 0 0 0 0 0
Nghost:           8699 ave        8699 max        8699 min
Histogram: 1 0 0 0 0 0 0 0 0 0
Neighs:              0 ave           0 max           0 min
Histogram: 1 0 0 0 0 0 0 0 0 0
FullNghs:       326942 ave      326942 max      326942 min
Histogram: 1 0 0 0 0 0 0 0 0 0

Total # of neighbors = 326942
Ave neighs/atom = 28.380382
Neighbor list builds = 443
Dangerous builds = 0
RESULT LEN=40 lz=217.10022435183415723 lx=32.565033652774310724 ly=32.565033652774310724 energy_total=432.93111842025501801 f_thermal=650.26231758263929805
Total wall time: 4:54:58
